6.958020000000000316e-01 8.219530000000000669e+00 9.275769999999999627e+00 1.085360000000000014e+01 1.072509999999999941e+01 7.599139999999999784e-01 3.309130000000000127e+00 6.882600000000000051e+00 3.286519999999999886e+00 3.872059999999999835e+00 8.460319999999999396e+00 5.855070000000000441e+00 5.113920000000000243e+00 1.073770000000000024e+01 1.354219999999999979e+00 1.572969999999999979e+00 9.727280000000000371e-01 6.250239999999999796e+00 8.214859999999999829e+00 1.294550000000000090e+00 6.098169999999999646e+00 6.771919999999999717e+00 1.910989999999999966e+00 1.081620000000000026e+01 1.089209999999999923e+01 2.475859999999999950e+00 4.709120000000000417e+00 1.049290000000000056e+01 4.256689999999999863e+00 7.185579999999999856e+00 8.881230000000000402e+00 7.375759999999999650e+00 4.856610000000000094e-01 1.103149999999999942e+01 7.709089999999999776e+00 2.752099999999999991e+00 1.241100000000000092e+00 3.241550000000000153e+00 5.065540000000000376e+00 3.682990000000000208e+00 1.168040000000000056e+01 4.549059999999999881e+00 7.694199999999999651e-02 8.881629999999999470e+00 1.220640000000000058e-01 9.638799999999999812e+00 2.462149999999999839e+00 2.742980000000000196e+00 6.593119999999999870e+00 5.581129999999999924e+00 4.751520000000000188e+00 7.648369999999999891e+00 1.061299999999999955e+01 8.006339999999999790e+00 6.435789999999999900e+00 8.880990000000000606e+00 9.398550000000000182e+00 3.582510000000000083e+00 3.796699999999999964e+00 1.762590000000000101e+00 9.356299999999999617e-01 9.177540000000000475e+00 3.233309999999999906e+00 7.822809999999999597e+00 4.649760000000000004e-01 1.700180000000000025e+00 4.189849999999999852e+00 7.744159999999999933e+00 1.020359999999999978e+01 1.423920000000000075e+00 1.181859999999999999e+01 4.506020000000000025e-01 6.219999999999999751e+00 2.818090000000000206e+00 5.489790000000000170e+00 1.086689999999999934e+01 1.223640000000000061e+00 1.196230000000000082e+01 2.176800000000000068e+00 6.794120000000000381e+00 1.169899999999999984e+01 1.174479999999999968e+01 1.447719999999999896e+00 8.076999999999999957e+00 5.391339999999999577e+00 1.039860000000000007e+01 7.083350000000000257e+00 2.929510000000000058e+00 1.825069999999999970e+00 3.459670000000000023e+00 3.885250000000000092e+00 2.331760000000000055e+00 7.168899999999999828e+00 7.232669999999999710e+00 2.600119999999999987e+00 3.293610000000000149e+00 9.142609999999999459e+00 9.603389999999999205e+00 1.128500000000000014e+01 6.034069999999999823e+00 8.053979999999999251e+00 8.898899999999999866e-02 1.167469999999999963e+01 1.079010000000000069e+01 1.054030000000000022e+01 9.235860000000000625e+00 8.822820000000000107e+00 6.194119999999999848e+00 2.735739999999999839e+00 8.680859999999999133e+00 1.599669999999999925e+00 6.671169999999999600e-01 3.059540000000000148e+00 2.251630000000000020e+00 1.188550000000000040e+01 1.020209999999999972e+01 6.268069999999999808e+00 2.163460000000000161e+00 1.041840000000000099e+00 9.808130000000000237e+00 5.445190000000000197e+00 8.632880000000000553e-01 2.743469999999999853e+00 9.759290000000000020e+00 4.519999999999999712e-02 8.171789999999999665e+00 9.270509999999999806e+00 5.510909999999999975e+00 3.356050000000000200e+00 1.633729999999999905e-01 5.109950000000000436e+00 1.216109999999999935e+01 4.400619999999999976e+00 3.116369999999999862e+00 1.110699999999999932e+01 5.825289999999999857e+00 7.549800000000000288e+00 7.246990000000000265e+00 9.205730000000000857e+00 6.980059999999999931e+00 9.873960000000000292e+00 9.422160000000000535e-01 1.164639999999999986e+01 3.803090000000000082e+00 5.802170000000000272e+00 4.059149999999999814e+00 8.383359999999999701e+00 2.876920000000000144e+00 5.875600000000000378e+00 7.387719999999999843e+00 2.318799999999999972e+00 1.022940000000000005e+01 8.368550000000000821e+00 4.043330000000000091e+00 4.177360000000000184e+00 4.482490000000000308e+00 5.838090000000000224e+00 8.025189999999999824e-01 8.389849999999999142e+00 5.495409999999999684e+00 8.680730000000000501e+00 3.847339999999999982e+00 9.160830000000000695e+00 4.041269999999999918e+00 1.223130000000000051e-01 9.674860000000000682e+00 1.151600000000000001e+01 3.249099999999999877e+00 8.722929999999999851e+00 5.795539999999999914e+00 6.271130000000000315e+00 5.013670000000000071e-01 6.511560000000000237e+00 6.171120000000000161e+00 8.419840000000000657e+00 9.293060000000000542e+00 3.381889999999999841e+00 3.281250000000000000e+00 1.051449999999999996e+01 1.121139999999999937e+01 6.704860000000000042e+00 1.194660000000000011e+01 1.132559999999999967e+01 5.840320000000000178e+00 5.024239999999999817e+00 1.979360000000000008e+00 1.351210000000000022e+00 4.116780000000000328e+00 9.846299999999999386e+00 9.050069999999999837e+00 2.980319999999999858e+00 9.677960000000000562e+00
1.657289999999999930e+00 4.372250000000000192e+00 6.771370000000000111e+00 3.129690000000000083e+00 2.146129999999999871e+00 2.470310000000000006e+00 8.561600000000000321e+00 6.427800000000000402e+00 2.304469999999999796e+00 8.212340000000000195e-01 4.008999999999999786e-01 4.629940000000000389e+00 1.129669999999999952e+01 9.413339999999999819e+00 6.634619999999999962e+00 2.260260000000000047e-01 5.911760000000000126e+00 1.868730000000000002e+00 1.977500000000000036e+00 8.687670000000000670e+00 7.646550000000000402e+00 4.380600000000000271e+00 4.923589999999999911e+00 6.086540000000000283e+00 6.154810000000000336e+00 4.898350000000000204e-01 6.576299999999999812e+00 2.435470000000000024e+00 1.129369999999999941e+01 1.062739999999999974e+01 1.289840000000000098e+00 1.140300000000000047e+01 2.207260000000000222e+00 9.691269999999999385e+00 4.475539999999999630e+00 7.239899999999999558e+00 3.730069999999999997e+00 9.228419999999999845e+00 5.002270000000000216e+00 5.102299999999999613e-01 1.212519999999999953e+01 6.865540000000000198e+00 4.748649999999999594e+00 5.789880000000000138e+00 8.808009999999999451e+00 5.706590000000000273e+00 8.520880000000000010e+00 3.309639999999999915e+00 3.879020000000000135e+00 9.429000000000000270e+00 1.047990000000000066e+01 8.913399999999999324e+00 8.288700000000000401e+00 6.160399999999999904e-02 8.630969999999999587e+00 2.845810000000000173e+00 8.593360000000000554e+00 2.730420000000000069e+00 6.909539999999999793e+00 5.419489999999999696e+00 1.563930000000000042e+00 8.597799999999999443e+00 3.836460000000000203e+00 8.531909999999999883e+00 8.649620000000000530e+00 4.687850000000000072e+00 1.075280000000000058e+01 8.817360000000000753e+00 1.470520000000000049e+00 3.843550000000000022e+00 6.079240000000000421e+00 1.159649999999999986e-01 1.094330000000000069e+01 2.160740000000000105e+00 6.220320000000000071e+00 1.005829999999999913e+01 9.253719999999999501e+00 8.634489999999999554e+00 2.776569999999999983e+00 1.669859999999999900e+00 3.047699999999999854e-01 6.303560000000000052e+00 1.026490000000000080e+01 5.172850000000000392e+00 1.077110000000000056e+01 7.777989999999999959e+00 3.979490000000000194e+00 6.166710000000000136e+00 6.500350000000000072e+00 3.579639999999999933e+00 1.171840000000000082e+01 2.161009999999999875e-01 9.152749999999999275e+00 1.116039999999999921e+00 4.087620000000000253e+00 1.170550000000000068e+01 9.742139999999999134e+00 1.766950000000000021e+00 3.105000000000000121e-02 9.169069999999999609e+00 1.200990000000000002e+01 8.422980000000000800e+00 2.945279999999999898e+00 1.654630000000000045e+00 6.581719999999999793e+00 3.282369999999999788e+00 1.203989999999999894e+00 9.285370000000000346e+00 2.782810000000000006e+00 9.189260000000000872e+00 1.001829999999999998e+00 5.903470000000000439e+00 7.677550000000000097e+00 1.122470000000000034e+01 8.366600000000000037e+00 1.787230000000000096e+00 5.562249999999999694e+00 6.062820000000000320e+00 1.098200000000000065e+00 1.154950000000000010e+01 7.525089999999999613e+00 9.290699999999999292e+00 7.321049999999999613e+00 1.118909999999999982e+01 1.876570000000000071e+00 3.163829999999999920e+00 5.820400000000000240e+00 3.724810000000000176e+00 6.774799999999999711e-01 9.070470000000000255e+00 1.112330000000000041e+01 5.414279999999999760e+00 6.846119999999999983e+00 1.065600000000000058e+01 1.001229999999999976e+01 2.764710000000000001e+00 6.582489999999999952e+00 2.731500000000000039e+00 1.521989999999999954e+00 4.259019999999999584e+00 4.115000000000000213e+00 7.396539999999999893e+00 5.153410000000000046e+00 1.058469999999999978e+01 1.095420000000000016e+01 6.666629999999999612e+00 1.044989999999999952e+01 1.002749999999999986e+01 4.914959999999999773e+00 4.552270000000000039e+00 6.213989999999999903e+00 6.582390000000000185e+00 6.450239999999999974e+00 4.313180000000000014e+00 1.030840000000000067e+01 7.775760000000000005e+00 2.286239999999999828e+00 6.844159999999999577e+00 9.300420000000000798e+00 1.138090000000000046e+01 3.477609999999999868e+00 9.526189999999999714e+00 5.524709999999999788e+00 2.783349999999999991e+00 9.316019999999999968e+00 1.090520000000000067e+01 6.821850000000000414e+00 7.096829999999999750e+00 1.065629999999999988e+01 1.094330000000000069e+01 1.092559999999999931e+01 6.270609999999999573e+00 3.525580000000000158e+00 3.797520000000000007e+00 7.387299999999999756e+00 1.244299999999999962e+00 2.148829999999999796e+00 6.322689999999999699e+00 1.000099999999999945e+01 1.537279999999999980e+00 9.939159999999999329e+00 4.586969999999999992e+00 1.103229999999999933e+00 3.665049999999999919e+00 1.214729999999999954e+01 3.450019999999999865e+00 7.045279999999999987e+00 4.294760000000000133e+00 7.000930000000000319e+00 9.788529999999999731e+00 1.137839999999999918e+01 2.111619999999999830e+00
7.235549999999999926e+00 1.722399999999999931e+00 1.151009999999999955e+01 7.231769999999999587e-01 8.603740000000000165e+00 3.084420000000000162e+00 1.042980000000000018e+00 3.092499999999999805e+00 4.007880000000000109e+00 2.320190000000000197e+00 2.936819999999999986e-01 3.567379999999999995e+00 3.950019999999999865e+00 1.498019999999999907e+00 1.100389999999999979e+01 9.385910000000000863e+00 3.451319999999999943e+00 5.513169999999999460e-01 2.318000000000000060e-01 5.463759999999999728e+00 4.494329999999999714e+00 1.080630000000000024e+01 2.523070000000000146e+00 5.526440000000000019e+00 3.944240000000000190e+00 5.774269999999999570e+00 7.615300000000000402e+00 3.093929999999999847e+00 9.275869999999999393e+00 1.030690000000000062e+01 4.072659999999999947e+00 9.212130000000000152e+00 3.889330000000000176e+00 7.469330000000000247e+00 9.241780000000000328e+00 4.241450000000000387e+00 9.360659999999999314e+00 1.129369999999999985e+00 3.007820000000000160e+00 4.014770000000000394e+00 1.023320000000000007e+00 1.589990000000000014e+00 1.071889999999999965e+01 1.029410000000000025e+01 3.541310000000000180e+00 1.001210000000000022e+01 9.418469999999999231e+00 7.106799999999999784e+00 3.564360000000000195e+00 4.906420000000000226e-01 5.983410000000000117e+00 2.850719999999999921e+00 4.106779999999999653e+00 2.526009999999999867e+00 6.236380000000000257e-01 2.224340000000000206e+00 1.037279999999999980e+01 1.533970000000000056e+00 5.567870000000000319e-01 1.616769999999999874e-01 9.129509999999999792e+00 1.081230000000000047e+01 8.527960000000000207e+00 3.514489999999999892e+00 6.467060000000000031e+00 4.989220000000000432e+00 5.615579999999999572e+00 2.521409999999999929e+00 4.024610000000000021e+00 5.528109999999999857e+00 1.127219999999999978e+01 1.052849999999999930e+01 6.144009999999999749e-01 7.659150000000000347e+00 1.025169999999999959e+01 6.649130000000000429e+00 4.934470000000000134e+00 8.138820000000000832e+00 2.427509999999999835e+00 6.434389999999999610e+00 2.198449999999999793e+00 4.347249999999999837e+00 7.722240000000000215e+00 9.121819999999999595e+00 9.488260000000000360e+00 7.713440000000000296e+00 8.974309999999999121e+00 3.922849999999999948e-01 2.051750000000000185e+00 7.973679999999999879e+00 1.085249999999999915e+01 1.223680000000000057e+01 4.798800000000000288e-02 8.651740000000000208e+00 5.873579999999999579e+00 1.131429999999999936e+01 2.853990000000000138e-01 5.055430000000000312e+00 1.292629999999999946e+00 4.902989999999999848e-01 9.576760000000000161e+00 7.152290000000000036e-01 6.930609999999999715e+00 7.061930000000000263e+00 5.946430000000000327e+00 2.005759999999999987e+00 1.066080000000000005e+01 5.381099999999999994e+00 8.357400000000000162e+00 3.204009999999999803e+00 5.024140000000000050e+00 2.376910000000000078e+00 2.900230000000000086e+00 1.329390000000000016e-01 9.882849999999999469e+00 8.146169999999999689e+00 4.318950000000000067e+00 7.517680000000000362e+00 4.320269999999999833e+00 2.262529999999999930e+00 6.020100000000000229e+00 6.868960000000000399e+00 2.719059999999999810e+00 4.270830000000000126e+00 1.084600000000000009e+01 1.060389999999999944e+00 5.093989999999999796e+00 9.292930000000000135e+00 6.542740000000000222e+00 4.286800000000000332e-02 8.339520000000000266e+00 8.052550000000000097e+00 4.384739999999999749e-01 1.127699999999999925e+01 7.936740000000000350e+00 7.262660000000000338e+00 2.425420000000000076e-01 1.636630000000000029e+00 1.029540000000000077e+01 1.224590000000000067e+01 6.120730000000000004e+00 8.813010000000000232e+00 3.435459999999999958e+00 9.777659999999999130e+00 6.369150000000000311e+00 4.516859999999999764e-01 5.348259999999999792e+00 3.303900000000000059e+00 3.791420000000000012e+00 5.385229999999999961e+00 4.333230000000000359e+00 3.008919999999999817e+00 8.466620000000000701e+00 1.183810000000000073e+01 6.101020000000000332e-01 3.012659999999999894e+00 1.170159999999999911e+01 4.827390000000000292e+00 8.333830000000000737e+00 9.114499999999999602e+00 5.464979999999999727e+00 6.573590000000000266e+00 1.035399999999999920e+01 9.413200000000000456e-01 9.948700000000000543e+00 7.397339999999999804e+00 9.355860000000000287e-01 8.772859999999999658e+00 4.223060000000000258e+00 5.489469999999999850e+00 1.224239999999999995e+01 3.257789999999999964e+00 1.188020000000000032e+01 8.674030000000000129e+00 5.483699999999999797e+00 8.531710000000000349e+00 1.208159999999999989e+01 2.456370000000000164e+00 5.192820000000000213e+00 9.775249999999999773e+00 1.000399999999999956e+01 9.079190000000000538e+00 1.109430000000000049e+01 6.686110000000000220e+00 9.338400000000000034e+00 8.981999999999999318e+00 8.881980000000000430e+00 9.926299999999999457e+00 1.554300000000000015e+00 1.154349999999999987e+01 5.694890000000000008e+00 1.116479999999999961e+01
3.130780000000000118e+00 9.657189999999999941e+00 5.651309999999999611e+00 6.824300000000000033e+00 5.128269999999999662e+00 9.254519999999999413e+00 9.525769999999999627e+00 1.028759999999999941e+01 4.868219999999999992e+00 1.068229999999999968e+01 1.026469999999999949e+01 8.477100000000000080e+00 8.432779999999999276e+00 1.073889999999999922e+01 9.064360000000000639e+00 7.507159999999999833e+00 2.952589999999999826e+00 5.918099999999999916e+00 1.947470000000000034e+00 8.136089999999999378e+00 1.888830000000000009e+00 1.392879999999999896e+00 1.190499999999999936e+01 1.190300000000000047e+01 1.006520000000000081e+00 5.904309999999999725e+00 1.283870000000000067e+00 1.973870000000000013e+00 7.352680000000000327e+00 4.471739999999999604e+00 1.177549999999999919e+01 8.842090000000000671e+00 5.947180000000000355e+00 2.427939999999999987e+00 4.010559999999999903e+00 2.442580000000000029e-01 3.475080000000000169e+00 9.356320000000000192e-01 1.224359999999999893e+00 6.176680000000000170e+00 9.955579999999999430e+00 5.084539999999999615e+00 3.368050000000000210e+00 3.352419999999999956e+00 9.366939999999999600e+00 8.694720000000000226e+00 8.808830000000000382e+00 2.571089999999999876e+00 7.992880000000000429e+00 9.085520000000000262e-01 1.194549999999999912e+01 1.094340000000000046e+01 4.590650000000000119e+00 3.063159999999999883e+00 1.221160000000000068e+01 1.144209999999999994e+01 5.303899999999999615e+00 4.413389999999999702e+00 5.097979999999999734e+00 7.521499999999999631e+00 4.649230000000000196e+00 2.818330000000000002e+00 1.123320000000000007e+01 4.350600000000000300e-02 5.415110000000000312e+00 8.715690000000000381e+00 1.978339999999999987e+00 5.387520000000000087e-01 9.862170000000000769e+00 7.683670000000000222e+00 1.069800000000000040e+01 5.178399999999999670e-01 2.892329999999999846e+00 7.608780000000000321e+00 8.172319999999999141e+00 5.400689999999999991e+00 7.699950000000000294e+00 6.841160000000000352e+00 6.148950000000000138e+00 1.007900000000000063e+01 7.677369999999999806e+00 1.068009999999999904e+00 3.220260000000000122e+00 8.894230000000000302e+00 1.075559999999999938e+01 2.640109999999999957e+00 5.675519999999999676e+00 2.429419999999999913e-01 1.165579999999999927e+01 1.885890000000000066e+00 8.839850000000000207e+00 3.703549999999999898e-01 6.332150000000000389e+00 7.321010000000000240e+00 6.964030000000000165e+00 5.680200000000000138e+00 6.765699999999999825e+00 5.920790000000000219e+00 3.365029999999999966e+00 5.631269999999999776e+00 1.771910000000000096e+00 8.946039999999999992e+00 8.768110000000000070e+00 5.413549999999999862e+00 7.886989999999999945e+00 1.149430000000000085e+01 1.724059999999999926e+00 2.664190000000000058e+00 9.108939999999999815e-01 4.240020000000000344e+00 3.637070000000000025e+00 3.987769999999999815e+00 1.018810000000000038e+01 8.631130000000000635e+00 2.055190000000000072e+00 5.367320000000000313e+00 6.408570000000000100e+00 8.837830000000000297e+00 8.572359999999999758e+00 7.581660000000000288e+00 3.054460000000000175e+00 9.183830000000000382e+00 1.161200000000000010e+01 7.703400000000000247e+00 3.544169999999999821e+00 1.164140000000000086e+01 1.077439999999999998e+01 1.102190000000000003e+00 1.206060000000000088e+01 3.314639999999999809e+00 6.487580000000000346e+00 1.099319999999999986e+01 1.155010000000000048e+01 7.591109999999999580e+00 2.613589999999999858e+00 5.509339999999999904e+00 3.582629999999999981e+00 5.754889999999999617e+00 8.984930000000000305e+00 2.033659999999999801e+00 8.570299999999999585e+00 3.491159999999999819e+00 6.188860000000000472e-01 7.021650000000000169e+00 1.526650000000000063e+00 1.875709999999999988e+00 5.863410000000000011e+00 6.678779999999999717e+00 7.507530000000000037e+00 1.016719999999999935e+01 8.398609999999999687e+00 3.384189999999999809e+00 2.676969999999999850e+00 6.682039999999999758e+00 7.975170000000000314e+00 5.188709999999999711e-01 7.483640000000000292e+00 1.127469999999999928e+01 3.471499999999999808e+00 1.140729999999999933e+01 6.139190000000000147e+00 6.039530000000000065e+00 1.182779999999999987e+01 1.043229999999999968e+01 1.157549999999999990e+01 4.293040000000000411e+00 3.032439999999999802e+00 2.131530000000000147e+00 1.154080000000000084e+01 4.660689999999999777e+00 1.145159999999999911e+01 3.340590000000000170e+00 1.185360000000000014e+01 4.079399999999999693e+00 1.205959999999999965e+01 8.244970000000000354e-01 8.785569999999999879e+00 5.732809999999999739e+00 1.185340000000000060e+01 1.114289999999999914e+01 9.769270000000000564e+00 8.537340000000000373e+00 1.215719999999999956e+01 9.506690000000000751e+00 6.308250000000000135e+00 1.053839999999999932e+01 4.377200000000000202e+00 9.628640000000000754e+00 2.654929999999999790e+00 2.957699999999999912e-02 8.310019999999999740e+00 9.133399999999999963e+00
5.493599999999999817e+00 3.464290000000000092e+00 1.286480000000000068e+00 9.383639999999999759e+00 1.004330000000000034e+01 1.077650000000000041e+01 7.772009999999999863e+00 3.244299999999999962e+00 2.689799999999999969e+00 1.249400000000000066e+00 3.421460000000000168e+00 1.221199999999999974e+01 7.772509999999999586e+00 1.164390000000000036e+01 9.579760000000000275e+00 8.053580000000000183e+00 8.721619999999999706e+00 1.447889999999999899e+00 9.840370000000000061e+00 7.165740000000000443e+00 2.756870000000000154e+00 5.634750000000000369e+00 6.835890000000000022e+00 2.198859999999999815e+00 7.744950000000000223e+00 1.129969999999999963e+01 5.315380000000000216e+00 5.639680000000000248e+00 5.329550000000000232e+00 5.761040000000000383e+00 1.172460000000000058e+01 1.000339999999999918e+01 5.297649999999999970e+00 7.099829999999999863e+00 6.693939999999999557e+00 4.428069999999999951e+00 7.269440000000000346e+00 3.536389999999999922e+00 5.596779999999999866e+00 4.203560000000000407e+00 8.764499999999999957e+00 9.530939999999999968e-01 3.206059999999999910e+00 6.524440000000000239e+00 3.090770000000000017e+00 1.044149999999999956e+01 5.968399999999999928e+00 1.064879999999999960e+01 1.357709999999999972e+00 4.686630000000000074e+00 5.334139999999999660e+00 1.798489999999999922e+00 1.172509999999999941e+01 1.316100000000000048e+00 6.367910000000000181e+00 1.075040000000000084e+01 2.097259999999999902e+00 3.675959999999999894e+00 3.633830000000000116e+00 1.090879999999999939e+01 3.762469999999999981e+00 7.202160000000000117e+00 1.094280000000000008e+01 2.195310000000000095e+00 5.690749999999999975e-01 7.962790000000000035e+00 8.885120000000000573e+00 9.026139999999999830e+00 5.689099999999999824e+00 6.444619999999999571e+00 1.028739999999999988e+01 7.017269999999999897e+00 4.073369999999999713e+00 9.829499999999999460e+00 5.693979999999999819e+00 4.329819999999999780e+00 1.521349999999999980e+00 2.027869999999999950e-01 4.541940000000000310e+00 5.425670000000000215e-01 8.301769999999999428e+00 1.021030000000000015e+01 2.060560000000000169e+00 4.171500000000000208e-01 1.058169999999999966e+01 5.205280000000000129e+00 7.922220000000000262e+00 9.337680000000000646e+00 1.650740000000000096e+00 3.517580000000000151e+00 9.115919999999999135e+00 8.025270000000000792e+00 8.698430000000000106e+00 9.341450000000000031e+00 5.326539999999999608e+00 4.625890000000000057e+00 4.735360000000000125e-01 6.509879999999999889e+00 3.516099999999999781e+00 4.529560000000000031e+00 1.130119999999999969e+01 1.144410000000000061e+01 7.331389999999999851e+00 1.199820000000000109e+00 5.265410000000000368e-01 3.506800000000000139e+00 2.154170000000000140e+00 5.426800000000000068e+00 1.980250000000000066e+00 3.425100000000000033e+00 8.815889999999999560e+00 8.719099999999999628e-01 6.039569999999999661e-01 1.045500000000000007e+01 6.609799999999999898e+00 9.423579999999999401e+00 1.082370000000000054e+01 8.979340000000000543e+00 4.661500000000000199e+00 8.845110000000000472e-01 3.344139999999999890e+00 3.765280000000000182e+00 2.778449999999999864e+00 5.568000000000000033e-02 2.947740000000000027e+00 2.688099999999999934e+00 1.017400000000000082e+00 7.618689999999999962e+00 8.740669999999999717e+00 8.413299999999999557e+00 3.673119999999999941e+00 9.086209999999999454e+00 1.604829999999999979e+00 9.404139999999999944e+00 1.122090000000000032e+01 2.111069999999999780e+00 1.196610000000000085e+01 4.165980000000000238e+00 5.473049999999999748e+00 2.850579999999999892e+00 8.702949999999999520e+00 2.637389999999999901e+00 9.235540000000000305e+00 2.589719999999999800e+00 1.078260000000000041e+01 8.508309999999999818e+00 8.396510000000000362e-01 1.273760000000000003e+00 5.877430000000000376e+00 1.178480000000000061e+01 2.064080000000000137e+00 9.923719999999999430e+00 7.710969999999999658e+00 1.140179999999999971e+01 7.564910000000000245e+00 6.069079999999999586e+00 1.125029999999999930e+01 2.717309999999999892e+00 9.887010000000000076e+00 9.984690000000000509e+00 1.355220000000000091e+00 7.867070000000000007e+00 9.569639999999999702e+00 1.028640000000000043e+01 8.069419999999999149e+00 1.087119999999999997e+01 1.207680000000000042e+01 1.506380000000000052e+00 3.071270000000000167e+00 6.356869999999999798e+00 6.146340000000000359e+00 6.511569999999999858e+00 9.066420000000000812e+00 4.815439999999999721e+00 4.731379999999999697e+00 7.270010000000000083e+00 8.292370000000000019e+00 7.227059999999999818e+00 6.107890000000000263e+00 8.268489999999999895e+00 6.690850000000000186e+00 6.540289999999999715e+00 1.187279999999999980e+01 5.721659999999999968e+00 1.413089999999999957e+00 4.686480000000000423e+00 1.178599999999999959e+01 1.068249999999999922e+00 5.225789999999999935e+00 1.066339999999999932e+01 3.696099999999999941e+00 5.832309999999999661e+00
5.520089999999999719e+00 3.412739999999999885e+00 1.181929999999999925e+00 9.486629999999999896e+00 9.917669999999999320e+00 1.068309999999999960e+01 7.791820000000000412e+00 3.233629999999999782e+00 2.643679999999999808e+00 1.206700000000000106e+00 3.401180000000000092e+00 1.205640000000000001e+01 7.826970000000000205e+00 1.170870000000000033e+01 9.577830000000000510e+00 8.016170000000000684e+00 8.753479999999999706e+00 1.392889999999999961e+00 9.833589999999999165e+00 7.092039999999999900e+00 2.649739999999999984e+00 5.682330000000000325e+00 6.779029999999999667e+00 2.258340000000000014e+00 7.716079999999999828e+00 1.135759999999999970e+01 5.349779999999999980e+00 5.630440000000000111e+00 5.440820000000000434e+00 5.843020000000000103e+00 1.169009999999999927e+01 9.939830000000000609e+00 5.311429999999999652e+00 7.175500000000000433e+00 6.719660000000000188e+00 4.412810000000000343e+00 7.267369999999999663e+00 3.595260000000000122e+00 5.555220000000000269e+00 4.192429999999999879e+00 8.816599999999999326e+00 9.829489999999999617e-01 3.251139999999999919e+00 6.536489999999999689e+00 3.093269999999999964e+00 1.044720000000000049e+01 5.970900000000000318e+00 1.071189999999999998e+01 1.369639999999999969e+00 4.594789999999999708e+00 5.304319999999999702e+00 1.823190000000000088e+00 1.173840000000000039e+01 1.405480000000000063e+00 6.359720000000000262e+00 1.071720000000000006e+01 2.047270000000000145e+00 3.631019999999999914e+00 3.583889999999999798e+00 1.094280000000000008e+01 3.875519999999999854e+00 7.195520000000000138e+00 1.080599999999999916e+01 2.316790000000000127e+00 5.301569999999999894e-01 7.943130000000000024e+00 8.919330000000000425e+00 9.041320000000000690e+00 5.663929999999999687e+00 6.391750000000000043e+00 1.023109999999999964e+01 7.005329999999999835e+00 4.075949999999999740e+00 9.920400000000000773e+00 5.721110000000000362e+00 4.276060000000000194e+00 1.617220000000000102e+00 2.647939999999999738e-01 4.597529999999999895e+00 6.167460000000000164e-01 8.349460000000000548e+00 1.026590000000000025e+01 1.982900000000000107e+00 5.373879999999999768e-01 1.062490000000000023e+01 5.102430000000000021e+00 7.969570000000000043e+00 9.277889999999999304e+00 1.672649999999999970e+00 3.409089999999999954e+00 9.130309999999999704e+00 8.074680000000000746e+00 8.655120000000000147e+00 9.369669999999999277e+00 5.320190000000000197e+00 4.694099999999999717e+00 4.966220000000000079e-01 6.458980000000000388e+00 3.659050000000000136e+00 4.592310000000000336e+00 1.129170000000000051e+01 1.141629999999999967e+01 7.282169999999999810e+00 1.236199999999999966e+00 5.221339999999999870e-01 3.437300000000000022e+00 2.167199999999999793e+00 5.425740000000000229e+00 2.044099999999999806e+00 3.406369999999999898e+00 8.768670000000000186e+00 8.573800000000000310e-01 5.590960000000000374e-01 1.051399999999999935e+01 6.547189999999999621e+00 9.438869999999999649e+00 1.091220000000000034e+01 8.891849999999999810e+00 4.721379999999999910e+00 8.652490000000000459e-01 3.335350000000000037e+00 3.730459999999999887e+00 2.816559999999999953e+00 9.786300000000000554e-02 2.945930000000000160e+00 2.653059999999999974e+00 8.875840000000000396e-01 7.612729999999999997e+00 8.793300000000000338e+00 8.407809999999999562e+00 3.659100000000000019e+00 9.131859999999999644e+00 1.509379999999999944e+00 9.411780000000000257e+00 1.121909999999999918e+01 2.070429999999999993e+00 1.193149999999999977e+01 4.142839999999999634e+00 5.446080000000000254e+00 2.859059999999999935e+00 8.728490000000000748e+00 2.666650000000000187e+00 9.241949999999999221e+00 2.600670000000000037e+00 1.076399999999999935e+01 8.530260000000000176e+00 7.819199999999999484e-01 1.236920000000000019e+00 5.942800000000000082e+00 1.180850000000000044e+01 1.959359999999999991e+00 9.958180000000000476e+00 7.671780000000000044e+00 1.144139999999999979e+01 7.529849999999999710e+00 6.062789999999999679e+00 1.127580000000000027e+01 2.765390000000000015e+00 9.855660000000000309e+00 9.959659999999999513e+00 1.343790000000000040e+00 7.934919999999999973e+00 9.626649999999999707e+00 1.030039999999999978e+01 8.080330000000000013e+00 1.082220000000000049e+01 1.211120000000000019e+01 1.511109999999999953e+00 3.117399999999999949e+00 6.384009999999999962e+00 6.196799999999999642e+00 6.481110000000000149e+00 8.999320000000000874e+00 4.826509999999999856e+00 4.770749999999999602e+00 7.169789999999999885e+00 8.220729999999999649e+00 7.266200000000000436e+00 6.173099999999999810e+00 8.229789999999999495e+00 6.728690000000000282e+00 6.560660000000000380e+00 1.186369999999999969e+01 5.827169999999999739e+00 1.420749999999999957e+00 4.731300000000000061e+00 1.177330000000000076e+01 1.077949999999999964e+00 5.195149999999999935e+00 1.064070000000000071e+01 3.679809999999999803e+00 5.750460000000000349e+00