-1.049481687622511163e+04
-1.049341371898158286e+04
-1.049762038784887227e+04
-1.049530456292016970e+04
-1.049405760665835078e+04
-1.049284236108938057e+04
-1.049674719384420132e+04
-1.049721211900322669e+04
-1.049330056475167476e+04
-1.049716844806778863e+04
-1.049346791234469310e+04
-1.049453534374713490e+04
-1.049205623309558905e+04
-1.049451066074030678e+04
-1.049507539034367619e+04
-1.049804289966738543e+04
-1.050244074520014874e+04
-1.049278688871974919e+04
-1.049827493565668556e+04
-1.050249564789059514e+04
-1.049231441039573656e+04
-1.049718616059937085e+04
-1.049350238564673236e+04
-1.049796948780298953e+04
-1.049262082661037857e+04
-1.050171956471143494e+04
-1.049558845752167872e+04
-1.049442273194033078e+04
-1.049378225934612419e+04
-1.049261481000894491e+04
-1.049542722080536987e+04
-1.049924686311507321e+04
-1.049426425017921247e+04
-1.049723708585247914e+04
-1.049609093809745718e+04
-1.049429615733520222e+04
-1.049506241781278368e+04
-1.049608014559022013e+04
-1.049431490219666739e+04
-1.049368767796211068e+04
-1.049481117298196841e+04
-1.049433508256087771e+04
-1.049922150202153898e+04
-1.049781562270172981e+04
-1.048964606690770779e+04
-1.049683358309999312e+04
-1.049227825844113613e+04
-1.049770755001847647e+04
-1.049628209848321603e+04
-1.049078094871048415e+04
-1.049391663219952352e+04
-1.049644457971306110e+04
-1.049720984359921567e+04
-1.049538150782336925e+04
-1.049629095496981063e+04
-1.049213601861701682e+04
-1.049457193471845494e+04
-1.049420361101512754e+04
-1.049311601302296913e+04
-1.049242727324054431e+04
-1.049346106158859220e+04
-1.049474583402659118e+04
-1.049651378537553137e+04
-1.049260276629572218e+04
-1.049799306671582053e+04
-1.049325653282279382e+04
-1.049359466167728533e+04
-1.049736204734761304e+04
-1.049529558670076403e+04
-1.049756009083471508e+04
-1.049436769964921405e+04
-1.048836451729508371e+04
-1.049568778436553475e+04
-1.049852015550372926e+04
-1.049932641054119449e+04
-1.049542947125152205e+04
-1.049294586049438658e+04
-1.049839948391645157e+04
-1.049252977866005858e+04
-1.049467575822769868e+04
-1.049653056268815635e+04
-1.049420713953758423e+04
-1.049725888096231756e+04
-1.049218651495637278e+04
-1.049434795843706161e+04
-1.049197448760203406e+04
-1.049453331704067023e+04
-1.050282239756579838e+04
-1.049242398886471165e+04
-1.049575092359099290e+04
-1.049461503230515882e+04
-1.049307326471780289e+04
-1.049498787726244882e+04
-1.049285528857661848e+04
-1.049672852942696591e+04
-1.049428835519515087e+04
-1.049524953444240236e+04
-1.049322798036109634e+04
-1.049358428791680490e+04
-1.049574546867015670e+04
-1.049325432411709698e+04
-1.049643650829514627e+04
-1.049441295344345417e+04
-1.049247674335669581e+04
-1.050150663066242487e+04
-1.049761516004319674e+04
-1.049763409495782980e+04
-1.049456351939540582e+04
-1.049593802459836297e+04
-1.049076305641273029e+04
-1.049515517914349039e+04
-1.050107414228856578e+04
-1.049434487937811537e+04
-1.049360088757482117e+04
-1.049591211460243539e+04
-1.049489898591367091e+04
-1.049767686856801811e+04
-1.049272667427433771e+04
-1.049333868461968450e+04
-1.049599651645452468e+04
-1.049492485403761384e+04
-1.049714595971053313e+04
-1.049424983857949701e+04
-1.049346879303881178e+04
-1.049596533689278112e+04
-1.049363237047436814e+04
-1.049175318773287108e+04
-1.049267941724273078e+04
-1.049473251914253342e+04
-1.049563028728016980e+04
-1.049740662193894968e+04
-1.048927905798448592e+04
-1.049539704020222234e+04
-1.049588361117622480e+04
-1.049544982399523906e+04
-1.049623369488702519e+04
-1.050215320796033120e+04
-1.049411543129682468e+04
-1.049475390836791303e+04
-1.049579904802036071e+04
-1.049597278497502703e+04
-1.049561987047124785e+04
-1.049587292991604409e+04
-1.049601899452203907e+04
-1.050025482155061400e+04
-1.049230031053002313e+04
-1.049211523792402841e+04
-1.049332704110980194e+04
-1.050230757494354657e+04
-1.049315227912260889e+04
-1.049678433851055161e+04
-1.049676888187178338e+04
-1.049311140350827372e+04
-1.049460514510089160e+04
-1.049264536457994836e+04
-1.049650171785788552e+04
-1.049431471375087494e+04
-1.049617140714516245e+04
-1.049672980077992179e+04
-1.049700182083689106e+04
-1.049151353754695447e+04
-1.049351636433947169e+04
-1.049743730226184925e+04
-1.049790546457424171e+04
-1.049442421177574215e+04
-1.049726463710459029e+04
-1.049514044495429880e+04
-1.049329420760612265e+04
-1.049672388192200560e+04
-1.049794803351826340e+04
-1.049538147127464254e+04
-1.050084708634605340e+04
-1.049033529880496098e+04
-1.049538515370231471e+04
-1.049669019106564519e+04
-1.049797445269915261e+04
-1.050129121969062362e+04
-1.049945327475037811e+04
-1.049451491622457979e+04
-1.049369375636333280e+04
-1.050253702582848928e+04
-1.049020273498431015e+04
-1.049451168451245940e+04
-1.049172451058992374e+04
-1.049555951469676620e+04
-1.049700480850682652e+04
-1.049354916645189041e+04
-1.049536181856629446e+04
-1.049410826883461232e+04
-1.049177987019097964e+04
-1.049485812746835290e+04
-1.049033422319623241e+04
-1.049299469827241046e+04
-1.049361792686834997e+04
-1.049661267292977209e+04
-1.049352075987766148e+04
-1.049477409299764258e+04
-1.049538081132093794e+04
-1.048806877735101079e+04
-1.049484058737509986e+04
