-8.144432055606594389e-02 -8.090814270322846946e-01 3.560463654979042353e-02 -2.035596364372950440e+00 3.710084375347995511e+00 4.266872705330933435e+00 3.942632428575290615e-01 -1.035300452722681896e+00 1.197536033632355279e+00 -2.056913380666589575e+00 4.822973008108447091e-01 2.971017686887487130e-01 1.249473860111824930e-01 -5.953034553090398306e-01 -1.485470276896354580e-01 6.423294463130099219e-01 -3.255973050031137905e-01 -2.778544904383348779e-01 6.603945313307841847e-01 -2.550652604756888375e-01 2.402793604272677463e-01 -1.792280016893934569e-01 3.269721252844470794e+00 -5.077548216321975394e-01 -1.165114937014392504e+00 -6.578748502346840610e-01 2.166253656280275219e+00 1.411969636661217997e+00 -1.035131274134801105e+00 3.213750393949345585e-01 -2.401909144785883410e-01 -1.012342558392786751e+00 4.892840165358879889e-01 -1.663230692902427643e+00 -1.161351870430461730e+00 -7.242797599708233891e-01 9.768603063533782827e-01 1.148589428568398629e+00 6.955913909195118316e-01 -8.276689602120257394e-02 1.127351602252065765e-01 6.202184733637835512e-01 1.486091969640269683e+00 -4.764656274690787896e+00 3.636069514481001241e-01 -3.616739960929490905e-01 -5.211009039114184588e-02 -1.961356274869203498e+00 -6.317457572681256517e-01 1.200550909196933767e-02 -5.189164946672892853e-01 6.567029414146815514e-01 -8.151579722389408478e-02 -5.476727408420057897e-01 2.337312749011985769e-01 1.920063843910441159e-01 9.288860925042636829e-01 -8.076374954980297671e-01 -1.374177505543507094e-01 -1.304517579207711719e+00 6.515432515946267822e-02 -2.326406129410295287e-01 2.028364879627143846e+00 1.349085595591404729e+00 -8.456358290891152762e-02 -1.028831042953286978e+00 -4.949610123115912308e-01 -1.917163639546766718e-01 -2.214840821122563419e-01 1.013559718628392753e-01 1.373895712637249300e+00 7.741720167767651706e-01 -2.788181399024351470e-01 4.635585867653375103e-01 1.538103843890726852e+00 -9.980868198158104887e-02 7.223668592203145999e-02 3.626736410012794121e-01 2.630747610374961076e-01 2.839850288113360266e-01 -6.913213027925699805e-01 1.815840577804366474e+00 1.964022508845382875e+00 1.204757233965525476e-01 -9.458435462810176331e-01 5.064147626655777223e-01 -4.134940660477234853e-01 -2.645135503654324483e-01 -6.279374392685915796e-01 -1.102026236133100100e-02 3.245709206219268839e-02 1.641479674395500965e-01 -1.360679213957256134e-02 4.356883427393107300e-01 1.798668179803496248e+00 -2.917662154125987284e-01 -1.812893065142560989e+00 3.045307141571892418e-01 -6.122408544811513975e-01 2.174613341092377361e-01 -1.535771339104622657e-01 7.719742377962076629e-01 1.005707569579933791e+00 1.839247386745872737e+00 -5.176807710668732909e+00 1.615321270852926594e-01 5.016155415084547764e-01 1.089416517798698747e+00 9.834834680916986205e-01 5.401383801440345911e-01 -1.691480431754764924e+00 2.141831775811482708e-02 -1.328679264036784768e-01 -3.458601690014455610e-01 -2.214701981551962240e-01 -4.730084193169767359e-01 4.960316196671177846e-01 -2.520092472605616751e-01 6.262600515674733304e-01 -2.446718330645916983e-01 -1.221572248627254886e+00 -9.552177883997736707e-01 -1.297856879363266103e-01 -1.562802375059458404e+00 -9.359946785190572660e-01 -3.592396756217372533e-02 3.653614722439968432e-01 -3.899000807962209603e-01 -3.018562526509001032e-01 -4.385021580368332339e-01 5.688457753587248256e-01 1.548153771919743293e-01 -1.142896491953107885e-01 4.054691388669605101e-01 3.480625759676897468e-01 1.188462610583235435e+00 -1.439665045672413157e+00 -1.905963914184917452e-01 7.470545917557774862e-02 -4.674527796103918331e-01 -8.323864202886835928e-01 8.102348239095402693e-01 1.803188179157520610e+00 -4.623825641802802311e-01 -4.237049451345112905e-01 7.162815722629168880e-01 -5.484343015977863889e-01 1.255711356376252308e-01 -1.829046792071722105e-01 5.261016995562295406e-01 7.972862341787448903e-01 1.228185125952938050e-01 -9.198275818534676906e-01 -1.082495108093900926e+00 2.231552991657921869e-01 1.422631487242144610e+00 3.028024186135173101e-01 -6.438037168645444064e-01 -5.702495976836949865e-01 -1.729323984935661127e-02 -8.949187344463065130e-02 -9.699136998376198804e-01 -7.533841335133072414e-01 -1.448960612034495554e-01 1.131005139841410934e+00 4.486374466907380176e-01 2.704737788651625063e+00 6.359392265209208306e-01 -1.690978552418072323e-01 2.027695364364465180e-01 7.666890781419796186e-01 -6.220526983576181168e-01 -2.698563027304284878e-01 1.253284234993886637e-01 -5.757666708428904601e-01 -2.759537252947380281e+00 -6.429886771630508591e-01 1.422828947964777546e+00 -2.116907501785365575e-01 -5.607462861863424797e-01 8.482634965179054742e-02 -3.830808981530366975e+00 1.012641320579895865e+00 1.187336981620100040e+00 2.562731647399212886e-01 -5.315555235777066345e-01 2.684463097578760338e-01 -1.333358671786684935e-01 -6.366169693137085916e-01 5.400838727570577147e-01 -9.567023433639454399e-02 -8.594369966275300365e-01
-2.636717711910822881e-02 1.265496975000494385e-02 8.566396363902268885e-01 4.108082916875334667e-01 1.974277610906510771e+00 1.818419908493762005e+00 -7.567605061820814605e-01 1.162030127443881344e+00 4.679885975087870742e-01 1.133831810654729599e+00 -1.145612091109945663e+00 -1.163357330894704722e+00 1.826253031378842095e+00 1.161798728159545657e+00 -1.468243885729139109e+00 4.705730704045011370e-01 5.992053614635720615e-01 -3.433610567306196737e-01 -2.281231846901642657e-01 1.230945462304747329e+00 -1.487885056983555776e+00 -2.233835617042735588e+00 -1.513389371882407408e+00 -7.919090290314145797e-01 -5.655413935784107116e-01 -1.703520393629068541e-01 2.257937652278513008e-01 -1.471237164027179523e+00 7.733420646769476603e-01 6.658257296444596296e-01 -9.486136528248320654e-02 -9.787984039148479865e-02 -3.321289354689635487e-01 1.389375810538677536e+00 9.691701368039542519e-01 -9.719150465368079361e-01 6.126522309866371252e-01 5.214809129583609648e-01 4.068359373064368567e-01 2.519963917447652357e-01 -8.895106760610647090e-01 1.948027161870834190e-01 2.141986042001039689e-02 -1.784376445782289988e-01 5.427789030886212007e-01 -1.858697782145870114e+00 3.844114954600303058e+00 9.048745600996931371e-01 1.117028623067533033e+00 -8.900212971484987579e-01 -1.000083538529311644e+00 -8.945664933134842567e-01 -4.272062734168267650e-01 -7.746728676721941209e-01 2.573160041813276483e-02 -2.058956379236958067e+00 2.284795910101044658e+00 4.636984547772025900e-02 -2.377853903627605014e-01 1.879079431110161069e+00 -1.561103390091802323e+00 1.501260449838792477e+00 2.168530111017507034e-01 -6.456873070390372060e-01 -9.159966381461318585e-01 -1.395188560561191338e-01 1.205328018866886675e+00 2.243194946763167885e-01 8.147985320172728141e-01 -3.461625307329775358e-01 -8.680501922111374391e-01 -4.184202997009152103e-01 7.218737216343636964e-01 2.895859199335243384e-01 2.478697711741114085e-01 -5.789378694795537239e-01 -4.110098661752214499e-01 1.802904329368735459e+00 -1.097580798770694921e+00 -2.987755568454438238e-01 -2.250857348398471292e+00 -5.370725967369021081e-01 1.210436800844387983e+00 -2.419104682715187138e-01 6.971438230070886588e-01 -5.715274359538600191e-01 -2.684154565199646791e-01 1.706993439776631982e+00 -5.347370580490700576e+00 1.539329745877074107e-01 1.233379782775959388e+00 1.711809115993974340e+00 7.051106432564517856e-01 7.909947447479724891e-01 -3.127371612209978169e-01 4.229115026995556859e-01 -7.954736064514485172e-02 -1.907604278000541928e-02 -2.755096443570661524e-01 -7.691012871260216599e-01 9.461705906028787805e-01 -2.038077478921661856e-01 -2.078623775743599078e-01 3.746611523711337877e-02 -1.136201853546959573e+00 -9.729198336514568446e-01 5.561141867345732043e-02 6.644548174399282914e-01 -8.435578635157805483e-01 3.703560972412255348e-01 4.322343227551262435e-01 1.995217189256366652e-01 -5.399265212437094619e-02 -3.414970069401374042e-01 -5.075100526114334487e-01 3.671201068049483873e-01 -6.555212624026737211e-01 -2.461368476447528264e-01 -1.895134941898637404e+00 -8.013249230213511654e-01 -1.488555600687497260e-01 -1.390676274516644551e+00 8.028706702407137907e-01 -1.960229617464804563e-01 8.264127192083987605e-01 -5.564201480105281927e-01 -8.325761677018387319e-01 1.827394601181565159e+00 1.143154630710300212e+00 1.222297299718173358e+00 5.632232869699985711e-01 -1.379724403499350327e+00 -5.750663023423009390e-01 6.914642561282261513e-01 7.263104172460272956e-01 1.974012273060472333e+00 -7.397480307977188918e-01 -1.100817303427604088e+00 -3.441205606038727494e-01 -1.001434396129200710e+00 -8.681041853774825734e-01 1.048334917298997526e+00 -3.788016568988476496e-01 -4.466165596075393207e-01 -5.576841023236330797e-01 7.368658241561594213e-01 1.779964432760955118e-01 -4.650225729042348211e-01 4.221658827833627559e-01 -5.290435557910843078e-01 -2.222081047619112737e-01 5.805196635652094983e+00 -3.930100871776930904e-01 -6.855111238732157775e-01 -3.911228974587773188e-01 -5.741391625430625201e-01 1.444435470474152161e-01 -7.984334604084183384e-01 1.269977379365865744e+00 6.391695605302476491e-01 -7.736336277752108304e-01 1.797134259658666189e-01 2.338778277812778306e-01 5.771463247981633016e-01 -1.080527699956415510e+00 3.043821043945825200e-01 -6.145481624562945111e-01 4.537441717857115808e-01 -3.506573332760411221e-02 -1.081428100282797233e+00 1.477653609071493568e+00 -9.439023633957568382e-01 5.266236334975645667e-02 -5.564587145579175109e-02 1.090710811129083080e+00 -4.384605061656527414e-01 1.530210042971087203e+00 8.463829916672037657e-01 1.464551267371772880e+00 -1.534149487231745157e+00 -1.077749880103123115e+00 -1.357091496608789027e+00 -7.395505700750857336e-01 7.614419708145091503e-01 -1.078285698001518300e+00 5.892233105579607333e-01 5.610553327860886563e-01 -2.911509504265815895e+00 -3.821224937393812859e-01 -8.084268241679305744e-02 -6.738563132521729893e-01 6.470541054785136081e-01
-6.529707280686621873e-01 2.624674664712727812e-01 1.081843076332706238e-01 1.460422589918591585e-01 -9.309450319142198449e-02 3.283046766298418073e-01 -4.067505766815485702e-01 -8.930217745353854486e-01 7.218474963821389090e-02 -1.048809542942201606e-01 7.219616533624111376e-01 -2.656288949159306689e-01 1.536915994231136784e+00 -1.091705313831094815e+00 -1.089566156002568897e+00 -6.721583567257806424e-02 -1.781404250530155275e-01 1.868780620295325615e-02 1.232941666797616881e-01 4.600963392510431516e-01 -1.282291420836949580e-01 1.440291366402015383e+00 1.106895905516787487e-01 4.526951616967229697e-01 4.308870646996603715e-01 2.295007817629096392e-01 -4.019883794099193275e-01 -9.415575173144881127e-01 1.217075389201664137e+00 1.248590429066294138e+00 -6.727548526587349975e-02 -2.282733371146665469e-01 -4.306124708822486880e-01 -6.497990152113671813e-01 1.841886881249195640e-01 -6.638917458480447786e-01 -1.205202549032713844e+00 8.866485240241476218e-01 1.585115950937636409e-01 8.076184693346510901e-01 8.436663640691023369e-01 8.711036343231054468e-01 1.165472320353533320e+00 1.878844946502034263e+00 -8.602463799020729773e-01 1.494265506583639214e+00 -2.770170307172922897e+00 -2.813488253200570721e+00 6.069947755949444135e-01 5.863421323576649691e-01 2.203898206076643218e-02 7.775931266405109454e-01 -1.221754282730932450e+00 1.055706784277301802e+00 -6.882498629584871130e-01 -3.441951225954920091e-01 4.519994211818201268e-01 -1.179352163648621943e+00 -2.425714474717079572e+00 -4.807037310727193397e-02 -1.533055739947784879e+00 2.826221898707249824e+00 2.763196961184307909e+00 -3.392210664235376094e-01 5.347447199364847581e-01 -2.925560583031313611e-01 -6.915439603261640533e-01 3.920896322466687622e-01 -9.350577685278133044e-01 -9.581832987836941262e-02 4.671930981913039460e-01 -5.697821711293367397e-02 1.926960571024909585e+00 9.271963635079809307e-02 3.042920643619443588e+00 -1.128611442800115869e-02 -8.354799716099362006e-02 3.768980121197124666e-01 2.675865328614109306e-01 1.911226962351975533e+00 -1.930898472623671924e-01 1.229080898293633206e+00 -6.601358783529600593e-01 -9.337542192260555041e-01 -6.178669424143006239e-01 -1.177064396057489359e+00 -4.639740770358781186e-01 -1.945399494442044130e-01 7.012838133141707786e-02 -1.016213611309407350e+00 4.445437362405231241e-01 -5.377801643263375730e-01 8.923239771379553043e-01 2.513567012787349397e-01 -4.485186617247790414e-02 -1.503930797580026735e-01 -6.471692909000495986e-01 2.688294041286096864e-02 2.070388018103774819e+00 3.708816307269835466e-02 2.815969881969913047e-01 -2.059222231303628470e-01 -1.126564844685324251e+00 -1.065187470066852327e-01 1.897530695822459978e-01 -1.058857414088690690e-01 -1.043008105773589156e+00 -8.695491453530013182e-01 -5.211189016335334712e-01 -3.103717463144548550e-01 -1.714308742485431969e-02 -2.888243591777438501e-01 2.734504992588573380e+00 5.062054748684118310e-01 1.544492521020920384e-01 -2.699162094340397999e+00 1.186551766715254086e+00 2.604702335371394950e-01 -1.287037677268991209e-01 -7.727820784088553774e-01 -4.583958116214915113e-01 8.593202685440982647e-01 -1.141209848280616557e-02 -5.521084080124057936e-01 -7.278613066717084523e-01 5.200333818796830654e-01 -1.101618973392669121e+00 5.397434586987683858e-01 -3.747454845547583124e-01 -3.922953204994116816e-01 -2.912154851158796909e-01 -3.317484122013892200e+00 -6.283524153185001682e-01 1.326715455443722158e+00 5.901278246493975033e-01 -2.923092323998399134e-01 -5.869041755082848866e-01 -2.008417232876140157e-01 -3.292271884433934925e-01 -4.103151541015824244e-01 -2.772230275024142876e-01 -4.275693131829179094e-01 2.337028899223200451e+00 -3.336983368373915709e-02 -4.702923059395071048e-01 -1.281041864701536470e+00 6.200132993316724850e-01 3.004622005179353184e-01 -6.856432785756031434e-01 3.034004572083672316e-02 7.172930442457799982e-01 -4.311734855916047882e-01 2.914180880448314359e-01 1.829634546253934735e+00 6.141270157588034628e-01 -7.963580659382428761e-01 5.045702532591059830e-01 -8.500185315344339632e-01 -9.057867875006077041e-01 1.066849945369646724e+00 5.472901606919040873e-02 5.552585236031628568e-01 1.158319511364400034e+00 -3.430535527927690564e-01 -5.659183173015619461e-01 -1.125611993854492843e+00 -1.074695923770523365e+00 -2.437390368384027839e-01 7.289504259699820521e-01 7.848102132086264282e-01 -2.891822567375164355e-02 3.549310209474060285e-01 -1.202206699631513803e-01 4.452631309044912666e-01 -4.353031914860497342e-02 -1.092604685716213275e+00 -4.730881235149145270e-02 -1.102403159856251369e+00 5.841407538326844895e-01 3.019611536597989754e-01 1.820325610155424656e-01 6.393294831467551953e-01 3.134904944466685994e-01 1.015882967443123341e+00 -5.729117178948194278e-01 3.673129395418948118e-01 -3.779094841025755214e-01 4.947501818525297246e-01 2.313802581723476137e-01 -1.522475650447323581e+00 -4.484914080312906171e-01 -6.702197449436790855e-01
-3.348090534022031550e-02 -8.649489275804069788e-01 4.048129933407107472e-01 -2.920514535970899050e+00 -1.853529350575073842e+00 1.229689221301120350e+00 7.745114023937909042e-01 -4.032780447546171487e-01 7.134477023607521673e-01 1.959620780236686066e+00 8.009022336619646687e-01 -6.560457674471681377e-01 -1.775117903305701406e+00 1.223084057284914872e+00 8.343013779217195447e-01 9.727662873707844327e+00 -3.102051388297331069e+00 7.294919002953276221e-01 1.283648963305052404e-01 8.892828763211519938e-01 1.035383242244410779e-02 1.927775096505771613e+00 4.268077524271374212e-01 1.472194128623065978e+00 -6.397624569187788934e-02 -5.744600362173413188e-01 -2.313848861580342919e-01 -2.857842868022042460e-01 6.227052443394447412e-01 -1.108603118014553496e-01 5.337620443090057565e-01 -1.632444817893770675e-02 1.665421787014770838e-01 1.576291924894967500e-01 -3.053560382713200183e-01 -2.440064315669685513e-01 -4.334370848130401077e-01 -1.947301596559283698e+00 -9.136595053743411521e-01 -1.484742140481644546e+00 -1.781160509950654891e+00 9.871020386780776645e-01 1.397219732057027042e-01 9.175351862766485400e-01 -1.326694886618447811e+00 -8.831225131515029608e-03 -4.244428517412263124e-01 6.362883823299519959e-01 2.510157729998135911e-01 -5.748318177341741469e-02 1.077091677694345800e-01 -2.004995608791762418e+00 8.892180845215378326e-01 -2.039409310358171745e-01 -3.824171421614354638e-01 1.271348805791028824e-01 4.749650288211931803e-02 6.934116096610694058e-01 5.872703005981672053e-01 1.622245765881515256e+00 1.101528984782094156e+00 -5.597569256906493873e-01 2.089749453334460938e+00 -4.853661695417681998e-01 1.032859961603887600e+00 -8.337213370489847397e-02 1.411180822211949071e+00 7.568504947926564252e-01 -1.246280549987991870e+00 -8.654281812092978754e-02 -2.910139106281916521e-01 -1.152594693069934062e-01 -2.396437837262923032e-01 -1.656644040828968711e-01 1.551825307231203543e-01 -1.373127981233886574e+00 -6.782570134196067024e-02 4.225371500795636615e-01 2.951845999069956150e+00 2.336222601272448518e-01 -9.901961042199620699e-01 -1.147699826875285822e+00 -1.049415809067161254e+00 -4.141281000868033968e-01 -2.967068472434823967e-01 -5.009815074693748649e-01 -4.756386578489261302e-02 8.949135922399879817e-02 -4.472032853484883552e-01 8.083486626318882040e-01 2.746637514176610839e-01 4.896290585798641626e-01 3.352204299076887856e-02 9.789783811359979993e-01 -1.137414900017510444e-01 -6.965473270741343592e-01 1.638574327825507992e-01 -3.305101689198772230e-02 -6.422785384704560174e-01 6.230945093577606730e-01 -3.473807194098472162e-01 -7.672326093498526012e-01 1.790347575759415388e+00 -9.245275584286423154e-01 -3.010462523115986944e+00 -3.484934928571861157e-01 -9.912425432057915542e-02 2.174567061235510024e-01 2.486957637750636163e+00 -3.823950306742655569e-01 -3.605046583761058882e-02 -3.344494074922822247e+00 6.315529245311791717e-01 1.473876144309870684e+00 1.152522702181474172e-02 1.267343027068861538e-01 2.337184193854021375e-01 4.847491047835396083e-01 -4.352605111736056465e-01 -9.292491322703548828e-01 -2.897905797450034959e-01 1.132097344463475652e+00 8.440319749383529135e-01 -6.756838533777933531e-01 4.282357431218047905e-01 3.244243677418475746e-01 3.395080015361138792e-01 -1.566624577016052788e-02 -3.175338112749614972e-01 -2.811604148805445930e-02 -1.148006816592504586e+00 -7.156778772411165335e-01 1.015837716027519766e-01 2.473231546424472793e-01 4.427105396879522647e-01 -8.613798764408759467e+00 1.784807362671786191e+00 -1.842481834520254491e+00 -1.189772844753207576e-01 -3.312372768933231626e-01 -4.936775176144756611e-02 1.346105172809160422e+00 -7.921445420808050919e-01 1.149648208849392672e+00 -1.955652539620643893e+00 8.735451538831632279e-01 -8.252212700043857208e-01 -6.571420858342875704e-01 1.209208327754881074e+00 -2.078307530055007124e+00 -5.034014297628947032e-01 3.665827462446576146e-02 3.046556697707305528e-01 -3.969377043638182001e-01 2.651306151236610398e-01 2.261652896343680830e+00 6.280978761057308679e-01 2.344776147262760624e+00 -1.840273771127059810e+00 -6.050134835003989631e-01 -2.621275666336151944e-01 -2.295825428433748983e-01 -1.239410048125748176e+00 -5.491274710095297440e-01 -4.071089884619529808e-01 4.620704322567428246e-01 2.012075398451171893e+00 1.109601220260988175e+00 1.059430255872579441e+00 -6.772445129954799414e-01 4.178145477965874988e-01 -4.034878467724148376e-01 8.495906999687289352e-01 -8.897194496375986361e-01 -6.315503534280199061e-01 -1.746087577534204960e-01 -2.873562592737916033e-01 -4.469867984624765200e-01 -4.840410229734722763e-02 4.810899107672439445e-01 -3.183678771398337770e-01 6.892191688495378221e-01 8.329962859580661849e-01 1.318965636301002997e-01 -1.483521380701615655e-01 1.211678643670323074e-01 1.723744691080011104e-01 -5.807386701323175027e-01 -3.286096094645330479e-01 6.974297296784012223e-01 -1.530490293215449327e-01 -2.094117243381455884e-01
7.915027947322473834e-01 8.836022810010257800e-01 1.555851654778645232e-01 6.750251367483843801e-01 -6.250351780223896425e-02 6.145903285481068012e-01 -1.777661752771498849e+00 8.099885122268806192e-01 3.394493803840822332e-01 4.890916980195733621e-01 -1.564790866242850242e+00 1.097331401764243958e-01 -8.483452575983706501e-01 1.415948675910528642e+00 -1.424792242337208359e-01 -6.342921778370823604e-01 2.750612439660867214e-01 2.940688954020551082e-01 -1.373801096040987657e+00 -8.924880135195176756e-01 8.598488873536476174e-01 -8.175490981770766608e-02 3.879840947219211356e-01 1.174221270183951171e+00 1.318246241637034633e+00 2.528607452048539983e+00 -1.331812410346690401e+00 -7.954741206720803426e-01 -6.385026163707288593e-02 5.430257289919127039e-01 5.204319028693722426e-01 1.547539278264673968e+00 -3.995648575719764478e-02 9.067792333200920263e-01 -1.705420438863780586e+00 -1.224409718073842690e+00 5.959529159670754472e-01 -8.781659404810316927e-01 2.608435577158678756e-02 3.279685820248599448e+00 -5.015795460642247239e-01 -1.720888195470044346e+00 2.259763135521605792e-01 -3.294549881833062632e-01 3.530536014204954665e-01 2.680786420060982111e-01 5.583428189530421637e-01 -1.072561393927684431e-01 -5.131330552207916673e-01 -1.654085793185479325e+00 -6.192892766820176087e-01 1.695776230913299543e-01 4.612327668474475173e-01 -2.054820502694930939e-01 9.761913053113321914e-02 4.591476021852666095e-03 -7.691763633382728282e-02 4.258194203727079241e-01 6.328919550565352825e-01 -3.384476785932244436e-01 -2.108926797578942192e-01 -6.235783909723382479e-01 -1.795504180255678983e-01 -1.705785535512399198e+00 6.496894862167816864e-01 -5.872399615808876483e-03 2.229921883813670735e+00 -6.690349806078801365e-01 6.478357208389363964e-02 -1.602932153169591922e+00 9.489365833816383322e-01 3.381269591851351120e+00 -1.176877219747493486e+00 5.171079807050475985e-01 2.625199169757222450e-01 -5.937371392644029688e-01 -1.261290650231902677e-01 3.993843661301946235e-01 1.456253289035493781e+00 -1.530692896144401294e+00 -2.794583445890973586e-02 -9.678552746482955715e-01 4.851656234953439228e-01 1.877080141293500370e-01 -2.295928272560120720e-01 1.109703550166727615e+00 1.288969089962246573e+00 1.191039884390103554e+00 -1.502667871708185610e+00 4.223530590933588513e-01 2.595924589185593656e-01 -3.082248751764511852e+00 1.463250289173174012e+00 -1.862298355010134188e+00 1.420372001785764171e+00 -1.483188165732172381e+00 5.023426494819007715e-01 -4.266308605297785550e-01 -9.253055742446422149e-01 -6.817295453465381794e-01 4.394159280996434158e-01 -3.850880041233015749e-01 3.586534641014200719e-01 -8.228142032266622108e-01 -2.564181749581050385e-01 -3.847488756165917678e+00 1.388601394267100719e+00 2.094217002184036058e+00 8.930212603147534844e-01 6.752956168007412385e-01 -1.399501329000577110e+00 1.273402602994666344e+00 -3.084862021015609468e+00 3.542419653007173874e-01 7.834742680070614362e-01 -4.312423911562737189e-01 -8.576161413701235414e-01 9.210797090920400665e-01 1.023552053946641172e+00 -4.127592447647995821e-01 -5.205625149098640492e-01 1.014845270208035721e-01 -1.756634242693595471e-01 -1.292735241869968632e-01 5.085868306145424622e-01 1.457100724636794242e-01 -6.005392497826096410e-01 -9.888174787059530457e-01 8.799559425005265556e-01 2.104715330604032264e-01 -5.112021567481679352e-01 2.153592001662056332e-01 -2.958049042552049479e-01 2.174309950919581236e-01 -5.704912813806677363e-01 6.457202171594761397e-01 -7.660910395471297596e-01 -1.704744238732888439e-01 -3.153386033975632552e-01 8.748199068295371417e-01 1.662963812394493701e-01 -2.734507563691732646e+00 8.341867067208155184e-01 3.009797635838995955e+00 6.785994843604234994e-01 5.582949964342793781e-01 -1.367260723824396340e+00 -2.895740928589916052e-01 1.834495473886880612e+00 1.297265525636630279e-01 5.269218814640416748e-03 1.255902646451303228e+00 -9.066650763398198531e-01 -2.146392912816055820e-01 -1.257901936267963983e+00 8.206354504094833802e-01 -2.137574028979705165e-01 2.264800440831278294e+00 1.017030707893428421e+00 -1.373635516997529615e+00 -1.879238325285405020e+00 -1.056946056000077405e+00 2.049897868586162186e+00 3.331751173444769343e+00 -1.085755781120507413e+00 -5.143527865595569626e-01 -1.418432361562398825e+00 5.264431420557826868e-01 7.915788993857622025e-01 9.364389651449818164e-01 -6.808358298883703252e-01 -2.760131691997806946e+00 -1.762203252136608778e-01 -3.175150422218987245e+00 -4.250028380093187619e-01 1.120356144776280871e+00 1.314028604014542134e+00 -2.395697359553048689e-01 3.195403001804681953e-01 -8.422810536868792219e-01 6.038220342963858123e-01 -1.283389796106596314e+00 -1.055317005038354239e+00 4.487061979892173369e+00 -1.606314696485948490e+00 -1.423826535990580622e+00 -1.259722277304738403e-01 -1.294059359997000724e+00 8.122793651418044325e-01 5.515160258445064301e-01 -1.188333541204639188e+00 8.247723553927744922e-01
9.770567386347477346e-01 1.616919468576738961e+00 7.883999874396213636e-01 7.553849659918636383e-02 1.418158796186250736e-01 7.103088996238958730e-01 -2.405943719863434804e+00 1.468276281628946300e+00 3.221905933170600145e-01 3.260076530673358119e-01 -8.406972541407590205e-01 3.830717450257896117e-01 -5.793872983117968056e-01 9.154109408464465858e-01 -4.855528316311323589e-02 -4.469939975513225194e-01 1.844632819423312753e-01 4.958223318699518933e-01 -1.205740938034268073e+00 -1.236166858600625140e+00 1.008214909380869440e+00 -1.050239076298764562e-01 4.095978163201416944e-01 6.304087836252970645e-01 9.314952479903069182e-01 1.687898885053879416e+00 -1.023185414636126778e+00 -8.835698851012187272e-02 -4.338500039804213948e-01 6.672526918978632579e-03 5.828603444593601912e-01 1.909881246958405221e+00 -1.573042050501630151e-01 9.441461039752570006e-01 -2.392141009663124152e+00 -1.041089034375498157e+00 3.930959620232132856e-01 -6.019461574313708097e-01 3.892598761095587834e-02 3.921678966268375088e+00 -1.073890654261034916e+00 -2.817202983045107079e+00 7.142061777927412314e-02 -5.397763688192072085e-01 3.426128657112674780e-01 3.790803644813142692e-01 6.445992161820275346e-01 -2.197501301416339703e-01 2.506115955831738629e-01 -1.375071735222306746e+00 -4.597029604676724363e-02 -4.012977811013351825e-02 5.470011686968004883e-01 -5.064651562874997737e-01 -5.486939830168741788e-02 -7.811011397910405879e-04 1.127156198411960047e-01 2.718761613723633674e-01 1.218499266131276570e+00 -6.154742738142692238e-01 -5.070194861286417831e-01 -4.322044979584784841e-01 6.198122390646163549e-01 -2.164210143489274429e+00 6.131777644723951370e-01 1.377185696239871526e-02 1.693644786394251422e+00 -3.620205807988207680e-01 4.136390762659072386e-03 -1.170664920294026912e+00 1.036607601568862780e+00 3.322868526250069010e+00 -1.152613205012680941e+00 5.340767473357024286e-01 2.724932261305920145e-01 -9.629321263188950208e-01 -1.827112808275307199e+00 2.906601268334739196e-01 1.691307653622460716e+00 -2.354346307442254371e+00 -3.906534140218917775e-03 -1.118372795799207564e+00 1.858241668445412831e+00 -7.966609418904067041e-01 -2.355022507573146795e-01 9.311738600953962663e-01 9.989579095661763608e-01 1.783813374190406531e+00 -2.136758475057579876e+00 8.755963799836414818e-01 1.402896727832730062e-01 -3.625152096246041733e+00 1.470372759145027741e+00 -2.500548489050621104e+00 2.520659657962554867e+00 -2.072610479674661388e+00 2.733638016603262000e-01 -6.022192085868870864e-02 -1.892070701153400814e+00 -1.316562169067702293e+00 1.335713288059959147e+00 -1.535951316325772642e-01 5.756108619914377389e-01 -9.371156794965058712e-01 -4.304669464434330850e-01 -1.781967322122038899e+00 6.128923720217144266e-01 1.334332605663422378e+00 5.505271795694449688e-01 5.353684695629274959e-01 -1.173895768523985694e+00 9.595732371516040304e-01 -2.413493507180361597e+00 -1.263028715967579908e-02 1.353962978284569907e+00 -4.957313148181131668e-01 -1.372808650221503113e+00 1.216841933034800816e+00 1.009290144722082561e+00 -3.365111236936503269e-01 -2.190178799618693883e-01 3.265383287594123551e-01 -2.857441775929194794e-01 1.160338855785703061e-01 6.509549831917821328e-01 -1.761869008725901464e-01 -2.459064768016807623e-01 -7.004852286728965316e-01 9.441173076198731140e-01 4.424251472372715127e-02 -3.092558875433247811e-01 -1.757811807940548587e-02 6.122207998765089032e-02 2.511073042722842263e-01 -6.132914072320356791e-01 6.962670768297721802e-01 -6.133274026762656206e-01 2.023607310341200838e-01 4.642795240912012122e-02 1.665757058866741636e+00 1.959252598264276113e-01 -3.506176354432616993e+00 8.645102973814327019e-01 3.689584969859009522e+00 7.474176315218684641e-01 4.722334888247680107e-01 -1.022589432923804553e+00 7.794556337690976104e-03 1.212272054279486033e+00 3.352677382058197320e-01 3.416430455995848187e-02 9.134918694483555868e-01 -8.485874555159754751e-01 -5.209569221344984014e-01 -1.330070745066590288e+00 1.227303237569303151e+00 3.387459265597015934e-01 1.826705545534876629e+00 1.251534856404308282e+00 -1.599382488147881753e+00 -1.952478255660189843e+00 -1.167972975286254655e+00 2.046391398097528125e+00 4.041445065192964314e+00 -1.812562935496908834e+00 -8.022613187919630517e-02 -2.959002407603512630e+00 1.078171541021246016e+00 -7.435342373100831681e-01 2.148593777120404447e-01 -1.592124778149849762e+00 -2.434714878436475161e+00 9.090423183208954372e-01 -2.825419714521552716e+00 -5.052382258598885345e-01 1.650406030343909647e+00 1.826716344168145323e+00 7.219518831704059281e-01 -2.013893682605418789e-01 -5.532206672391127844e-01 1.963273803605398993e-01 -1.182984618192061133e+00 -1.002780625743402654e+00 2.247016634499130028e+00 -9.604957489651557712e-01 -6.753434393195040242e-01 -1.796733167565817413e-01 -1.333634294045360269e+00 7.411909338907101130e-01 1.203612064618379440e+00 -2.048765554754812701e+00 1.779114426056495279e+00