7.012710000000000221e+00 5.921890000000000320e+00 2.362550000000000150e+00 8.977790000000000603e+00 6.937990000000000101e+00 9.006750000000000034e-01 1.022680000000000078e+01 1.840049999999999963e+00 8.902290000000000703e+00 1.381129999999999969e+00 1.272769999999999957e+00 9.434590000000000476e-01 5.603200000000000180e+00 3.861540000000000195e+00 1.173850000000000016e+01 1.197160000000000046e+01 1.020350000000000090e+00 4.065409999999999968e+00 1.077810000000000024e+01 2.911480000000000068e+00 2.340819999999999901e+00 3.277499999999999858e+00 4.424299999999999677e+00 3.845320000000000071e+00 8.324790000000000134e+00 1.179139999999999944e+01 7.855429999999999913e-01 5.456590000000000051e-01 9.623369999999999536e+00 1.186870000000000047e+01 1.144379999999999953e+01 5.876079999999999970e+00 8.456530000000000769e+00 3.246809999999999974e+00 4.487630000000000230e+00 9.302099999999999369e+00 1.118340000000000067e+01 4.969529999999999781e+00 5.990260000000000140e+00 1.042759999999999909e+00 5.956489999999999840e-01 7.162959999999999994e+00 1.037640000000000029e+01 9.579599999999999227e+00 2.774349999999999872e-01 4.011169999999999902e+00 6.389359999999999928e+00 1.121429999999999971e+01 9.400699999999999612e-01 4.638829999999999565e+00 2.039649999999999963e+00 1.225259999999999927e+01 9.121079999999999188e+00 4.614989999999999704e+00 4.168830000000000036e-01 7.899799999999999933e+00 7.092039999999999900e+00 2.407859999999999889e+00 1.012920000000000043e+00 9.906119999999999592e+00 7.135369999999999990e+00 5.167139999999999844e+00 4.846169999999999867e+00 6.495659999999999989e+00 1.068110000000000070e+01 1.033590000000000053e+01 1.000859999999999950e+01 -3.907800000000000162e-02 2.792129999999999779e+00 3.274020000000000152e+00 3.328380000000000116e+00 6.919640000000000235e+00 5.198970000000000091e+00 6.391099999999999781e+00 6.598779999999999646e+00 4.986329999999999707e+00 2.499610000000000110e+00 9.553020000000000067e+00 9.256159999999999499e+00 5.127309999999999590e+00 3.184919999999999973e+00 1.190049999999999919e+01 7.133930000000000327e+00 2.973250000000000171e+00 1.017950000000000088e+01 6.816900000000000404e+00 5.067479999999999762e+00 9.689470000000000027e+00 8.911770000000000636e+00 3.241880000000000095e+00 9.806900000000000617e+00 4.095939999999999692e+00 9.721429999999999794e+00 1.031279999999999930e+01 8.637829999999999231e+00 7.809680000000000177e+00 7.135229999999999961e+00 1.109399999999999942e+00 3.662049999999999805e+00 4.183980000000000032e+00 4.003280000000000172e-01 7.755460000000000242e+00 7.298569999999999780e-01 3.885149999999999881e+00 4.806799999999999962e+00 8.783590000000000231e+00 8.485620000000000829e+00 9.964000000000000412e+00 5.502080000000000304e-01 3.075340000000000185e+00 8.652960000000000207e+00 2.429629999999999956e+00 6.951480000000000103e+00 1.919040000000000079e+00 1.192570000000000086e+01 1.151559999999999917e+01 9.276630000000000820e+00 7.721980000000000288e+00 1.587099999999999955e+00 1.011589999999999989e+01 9.084089999999999776e+00 3.485720000000000152e+00 5.740070000000000228e+00 2.694960000000000022e+00 3.273750000000000160e+00 1.185800000000000054e+01 5.393640000000000434e+00 3.339300000000000157e+00 4.825919999999999987e+00 3.659769999999999968e+00 1.135459999999999958e+01 1.159070000000000000e+01 1.117900000000000027e+01 2.091509999999999980e+00 1.201110000000000078e+01 1.900619999999999976e+00 9.547180000000000888e+00 9.067790000000000461e+00 3.421539999999999804e+00 1.429300000000000015e+00 2.576119999999999965e+00 1.938669999999999893e+00 7.001420000000000421e+00 9.834099999999999397e+00 5.235850000000000115e+00 1.131850000000000023e+01 5.096289999999999765e+00 2.068239999999999856e+00 7.569329999999999892e+00 4.721350000000000158e+00 2.212349999999999817e+00 1.102609999999999957e+01 5.312579999999999636e+00 6.450490000000000279e+00 9.548970000000000624e+00 5.831140000000000212e-01 8.301790000000000447e+00 9.696329999999999671e+00 5.609239999999999782e+00 1.076120000000000054e+01 1.098300000000000054e+01 6.479910000000000281e+00 7.753820000000000157e-01 1.030680000000000085e+01 2.133640000000000203e+00 2.446870000000000100e+00 5.738599999999999923e+00 7.339349999999999596e+00 6.313790000000000013e+00 6.309720000000000439e+00 1.076609999999999978e+01 1.108750000000000036e+01 6.204930000000000057e+00 1.181589999999999918e+01 7.487849999999999895e+00 3.082390000000000185e+00 1.559860000000000024e+00 8.661939999999999529e+00 6.169959999999999667e+00 8.025760000000000005e+00 6.495479999999999698e+00 9.036110000000000753e+00 7.835460000000000313e+00 7.939020000000000188e+00 6.792340000000000044e-01 6.995689999999999742e+00 5.428779999999999717e+00 7.342789999999999928e+00 2.597100000000000186e+00 6.204519999999999591e+00 4.118190000000000239e+00 8.173909999999999343e+00
7.429479999999999862e+00 8.626219999999999999e+00 1.291039999999999965e+00 1.008600000000000030e+01 8.498620000000000729e+00 7.573779999999999957e-01 1.109370000000000012e+01 1.677820000000000089e+00 2.760749999999999815e+00 6.116189999999999571e+00 1.738669999999999938e+00 1.023360000000000047e+00 6.555460000000000065e+00 5.567249999999999588e+00 2.852129999999999832e+00 9.230180000000000717e+00 1.043319999999999936e+01 1.090060000000000073e+01 7.232619999999999605e-01 4.826939999999999564e+00 5.761650000000000382e+00 1.106939999999999991e+01 1.081099999999999994e+01 1.508610000000000007e+00 8.006309999999999150e+00 2.092530000000000001e+00 7.895360000000000156e+00 4.372720000000000162e+00 5.775669999999999860e+00 2.057970000000000077e-01 1.020139999999999958e+01 3.614739999999999842e+00 6.078490000000000393e+00 8.364520000000000621e+00 4.814309999999999867e+00 9.925840000000000884e+00 2.876069999999999904e+00 2.272470000000000212e+00 7.009909999999999641e+00 5.565529999999999866e+00 1.074540000000000006e+01 7.026469999999999771e+00 1.969980000000000064e+00 3.579829999999999846e+00 3.926029999999999909e+00 1.769849999999999923e+00 1.074929999999999986e+01 8.621600000000000819e+00 2.952350000000000030e+00 7.866819999999999702e+00 8.252779999999999561e+00 3.533879999999999910e+00 9.237180000000000391e+00 7.339470000000000161e-01 1.139000000000000057e+01 1.032859999999999889e+00 7.236550000000000260e+00 6.390740000000000087e+00 3.747450000000000170e+00 6.749959999999999738e+00 5.334419999999999717e+00 9.140779999999999461e+00 3.149680000000000035e+00 2.750980000000000203e+00 9.064360000000000639e+00 4.681650000000000311e+00 2.556189999999999851e-01 3.834330000000000016e+00 1.098390000000000022e+01 9.367940000000000822e+00 1.189770000000000039e+01 8.424149999999999139e+00 4.352990000000000137e+00 3.667569999999999997e+00 2.705600000000000005e+00 4.477859999999999729e+00 6.055329999999999657e+00 3.154440000000000133e+00 5.175550000000000317e+00 1.492280000000000051e+00 6.949840000000000018e+00 9.557230000000000558e+00 1.708139999999999992e+00 1.070599999999999952e+01 7.192569999999999908e+00 5.517680000000000362e+00 -1.107770000000000005e-01 2.016290000000000138e+00 1.149109999999999943e+01 1.612190000000000012e+00 7.615160000000000373e+00 1.051870000000000083e+01 3.655899999999999928e+00 1.197540000000000049e+01 1.046410000000000018e+01 7.028889999999999638e+00 7.996780000000000221e+00 9.189500000000000668e+00 8.058920000000000528e+00 1.032820000000000071e+01 5.195100000000000051e+00 8.077070000000000860e+00 1.071969999999999956e+01 6.047869999999999635e+00 2.029980000000000118e-01 2.353889999999999816e+00 6.051669999999999661e+00 9.637589999999999435e+00 1.174600000000000044e+01 1.089029999999999987e+01 4.537819999999999965e+00 7.271980000000000111e+00 6.236349999999999838e+00 7.341980000000000395e+00 9.262320000000000775e+00 2.609970000000000123e+00 7.014029999999999987e-01 9.995079999999999742e+00 8.486100000000000421e+00 6.086030000000000051e+00 8.440839999999999677e+00 2.788999999999999813e-01 6.131520000000000081e+00 8.478699999999999903e+00 4.778999999999999915e-02 1.520199999999999996e+00 3.700160000000000116e-01 7.057339999999999947e+00 6.380340000000000344e+00 6.516269999999999563e+00 1.146330000000000027e+01 1.190859999999999985e+01 4.407750000000000057e+00 1.210619999999999941e+01 9.412580000000000169e+00 3.935160000000000213e+00 4.624150000000000205e+00 5.948830000000000062e+00 5.478539999999999743e+00 8.110530000000000683e+00 1.112449999999999939e+01 7.634730000000000238e+00 3.160000000000000142e+00 4.603760000000000296e+00 1.959719999999999906e+00 3.832899999999999974e+00 9.819989999999999553e-01 4.146659999999999791e-01 3.279990000000000183e+00 8.164120000000000488e+00 2.186339999999999950e+00 7.228609999999999758e+00 1.633350000000000080e+00 1.127890000000000015e+01 4.143390000000000128e+00 3.419299999999999784e+00 1.200839999999999996e+01 9.383670000000000400e+00 1.115869999999999962e+01 4.810279999999999667e+00 1.273109999999999964e+00 4.159019999999999939e+00 1.848090000000000011e+00 1.073949999999999960e+00 3.305540000000000145e+00 2.836559999999999970e+00 1.166960000000000086e+01 6.172329999999999650e+00 6.200050000000000061e+00 3.785470000000000113e+00 1.050600000000000023e+01 4.503510000000000346e+00 6.338779999999999859e+00 8.009069999999999467e+00 3.121459999999999901e+00 3.205849999999999866e+00 9.955590000000000828e+00 6.563799999999999635e+00 8.657489999999999242e+00 5.389409999999999812e+00 1.199629999999999974e+01 1.363650000000000029e+00 1.124629999999999974e+01 9.126749999999999474e+00 6.602129999999999832e+00 3.209220000000000184e+00 3.632649999999999935e+00 6.751620000000000399e-01 3.541300000000000003e-01 5.412559999999999594e-01 8.522360000000000824e+00 3.022159999999999958e+00
1.841970000000000107e+00 1.045960000000000001e+01 1.053379999999999939e+01 7.490590000000000082e+00 1.022920000000000051e+01 4.936639999999999695e+00 3.550710000000000033e+00 1.141629999999999967e+01 5.831070000000000420e+00 6.421380000000000088e+00 8.337509999999999977e+00 3.217210000000000125e+00 3.166139999999999954e+00 2.576690000000000147e+00 1.321369999999999933e+00 1.633769999999999945e+00 1.430520000000000014e+00 7.670350000000000001e+00 1.052829999999999977e+01 2.339320000000000010e-01 1.229729999999999990e+00 9.941639999999999588e+00 1.101350000000000051e+01 8.335330000000000794e+00 4.296759999999999913e+00 1.065919999999999979e+00 1.054770000000000074e+01 2.491420000000000190e+00 -8.430100000000000093e-02 1.267439999999999900e+00 8.644640000000000768e+00 3.143679999999999808e+00 9.488200000000000855e+00 2.986540000000000195e+00 7.253589999999999982e+00 4.951800000000000423e+00 8.326069999999999638e+00 3.977240000000000109e+00 4.017949999999999910e+00 5.891639999999999766e+00 3.196979999999999933e+00 8.040499999999999758e+00 2.984510000000000218e+00 5.090150000000000396e+00 6.749699999999999811e+00 5.427220000000000155e+00 6.988699999999999690e+00 7.467679999999999652e+00 1.170490000000000030e+01 8.370609999999999218e+00 9.823689999999999145e+00 1.788119999999999932e+00 1.381930000000000103e+00 4.876380000000000159e+00 1.152839999999999954e+01 9.145450000000000301e+00 5.087489999999999846e+00 4.398249999999999993e+00 9.343189999999999884e+00 3.975089999999999790e+00 2.265219999999999789e+00 7.996529999999999916e+00 7.356040000000000134e+00 8.510070000000000690e+00 1.104630000000000045e+01 1.044050000000000011e+01 9.255340000000000344e+00 4.188729999999999620e+00 1.204039999999999999e+01 7.212469999999999715e+00 8.251440000000000552e+00 8.567800000000000082e+00 1.181070000000000064e+00 6.061289999999999623e+00 8.703810000000000713e+00 3.262729999999999908e+00 8.473689999999999500e+00 1.089359999999999928e+01 4.688310000000000421e+00 8.304000000000000270e+00 1.642190000000000039e+00 5.023649999999999949e+00 1.027420000000000044e+01 1.041230000000000011e+01 1.128810000000000002e+01 5.857610000000000205e+00 1.125580000000000069e+01 1.032119999999999926e+01 2.361880000000000202e+00 7.852319999999999744e+00 1.467189999999999994e+00 7.037889999999999979e+00 1.078999999999999915e+01 9.885180000000000078e+00 5.973709999999999631e+00 5.131739999999999746e+00 5.118100000000000094e+00 1.297099999999999989e-02 3.589160000000000128e+00 1.871950000000000003e+00 1.008399999999999963e+01 3.516789999999999861e+00 1.067619999999999969e+01 1.184360000000000035e+01 5.678689999999999571e+00 2.848910000000000053e+00 4.589109999999999800e+00 4.128899999999999793e+00 4.783850000000000047e-01 1.023380000000000045e+01 8.502810000000000201e+00 7.016919999999999824e+00 8.634470000000000312e+00 1.176079999999999970e+01 1.199220000000000041e+01 1.328940000000000010e+00 3.499470000000000081e+00 3.136530000000000151e-01 6.390119999999999578e+00 4.611989999999999590e+00 3.191390000000000171e+00 4.890390000000000015e+00 1.197100000000000009e+01 8.346510000000000318e+00 1.042699999999999960e+01 2.428469999999999906e+00 5.127880000000000216e+00 9.562430000000000874e+00 7.292390000000000150e+00 9.191729999999999734e+00 8.249040000000000816e+00 5.726350000000000051e+00 7.444770000000000110e+00 3.803969999999999851e-01 5.912329999999999863e+00 6.700660000000000061e+00 4.889429999999999943e+00 5.045490000000000252e-01 4.689269999999999605e+00 1.125670000000000037e+01 4.969149999999999956e-01 9.957129999999999370e+00 9.299030000000000129e+00 1.178350000000000009e+01 8.857900000000000773e+00 2.163699999999999957e+00 1.338340000000000085e+00 3.206640000000000157e+00 3.407109999999999861e+00 9.043359999999999843e+00 6.561749999999999972e+00 1.101550000000000029e+00 9.179149999999999920e+00 1.082680000000000042e+01 5.265100000000000335e-02 1.061780000000000079e+01 1.191430000000000078e+01 3.357800000000000118e+00 1.097349999999999959e+01 8.210559999999999192e+00 3.762239999999999807e+00 7.140729999999999578e+00 1.040579999999999927e+01 7.019770000000000287e+00 2.856689999999999952e+00 5.859670000000000156e-01 3.774999999999999911e+00 6.706550000000000011e+00 6.120759999999999756e+00 6.132039999999999935e+00 1.030630000000000024e+01 1.022860000000000014e+01 6.774259999999999948e+00 8.566380000000000550e+00 1.172930000000000028e+01 9.635379999999999612e+00 1.679179999999999895e+00 1.977200000000000069e+00 6.659519999999999662e+00 1.121490000000000098e+00 5.959279999999999688e+00 5.736729999999999663e+00 3.154929999999999790e+00 5.624480000000000146e+00 2.119569999999999954e+00 9.050500000000000211e-01 4.431949999999999612e+00 2.812059999999999782e+00 5.284320000000000128e+00 5.736480000000000468e-01 3.662790000000000212e+00 1.735619999999999941e+00
2.737179999999999946e+00 1.131719999999999970e+01 4.768469999999999764e+00 9.842829999999999302e+00 2.198920000000000208e+00 6.514219999999999899e+00 1.154659999999999975e+01 9.633300000000000196e+00 6.471359999999999779e+00 1.042890000000000095e+00 1.086009999999999920e+01 7.773780000000000356e+00 2.944580000000000197e+00 1.105439999999999934e+01 9.499589999999999534e+00 1.296140000000000070e+00 1.032300000000000040e+01 1.119330000000000069e+01 8.380499999999999616e+00 4.301540000000000141e+00 2.170790000000000219e+00 3.556779999999999831e+00 1.746909999999999963e+00 2.769750000000000267e-01 9.812799999999999301e+00 4.913549999999999862e+00 5.963420000000000165e+00 4.780579999999999607e+00 4.858679999999999666e+00 2.614819999999999922e+00 1.176650000000000063e+01 4.223199999999999732e-01 4.500009999999999621e+00 1.116710000000000091e+00 3.931199999999999972e-02 1.409089999999999954e+00 1.014620000000000033e+01 1.050319999999999965e+01 3.159219999999999917e+00 6.075829999999999842e+00 6.781620000000000203e+00 1.212330000000000041e+01 8.611090000000000799e+00 1.165920000000000023e+01 1.021490000000000009e+01 7.444259999999999877e+00 9.623770000000000380e+00 1.934800000000000075e+00 1.207829999999999959e+00 2.415299999999999780e+00 4.506649999999999601e+00 1.176329999999999920e+01 9.040570000000000661e+00 9.228189999999999671e+00 6.607339999999999769e+00 1.033680000000000021e+01 4.758409999999999584e+00 5.186259999999999870e+00 1.181639999999999979e+01 1.060929999999999929e+01 3.215559999999999974e+00 6.057660000000000267e+00 1.147279999999999944e+01 2.596260000000000012e+00 2.342880000000000074e+00 2.452339999999999964e+00 9.206360000000000099e+00 7.451319999999999943e+00 2.368679999999999897e+00 1.111120000000000019e+01 1.213649999999999984e+01 9.810280000000000555e+00 4.218289999999999651e+00 9.991049999999999542e+00 1.170320000000000071e+01 7.128860000000000419e+00 8.272679999999999367e+00 6.624270000000000103e+00 9.919079999999999231e+00 1.186079999999999934e+01 7.153559999999999697e+00 4.839559999999999640e+00 6.074720000000000120e+00 8.657700000000000173e+00 1.147049999999999947e+01 6.744100000000000428e+00 4.681759999999999700e+00 1.318429999999999991e+00 7.542629999999999946e+00 1.052050000000000018e+01 1.191840000000000011e+01 6.012979999999999769e+00 1.172899999999999920e+01 7.627130000000000187e+00 1.950139999999999985e+00 8.421839999999999549e+00 5.449080000000000368e+00 3.141490000000000116e+00 7.201889999999999681e+00 6.596969999999999779e+00 9.190149999999999153e+00 1.149740000000000073e+01 1.533609999999999918e+00 4.801449999999999996e+00 1.893880000000000008e+00 6.060950000000000060e+00 4.485280000000000378e+00 1.118970000000000020e+01 8.915889999999999205e+00 2.915869999999999962e+00 1.105059999999999931e+01 9.254210000000000491e+00 9.238479999999999137e+00 9.402179999999999538e+00 1.251230000000000064e+00 9.861230000000000828e+00 2.173950000000000049e+00 4.271869999999999834e+00 2.673270000000000035e+00 4.825109999999999566e+00 2.509199999999999875e+00 5.128599999999999604e+00 8.962619999999999365e+00 1.043099999999999916e+01 1.313870000000000093e+00 9.375280000000000280e-01 1.007460000000000022e+01 8.858029999999999404e+00 4.941779999999999617e+00 1.045010000000000083e+01 3.596880000000000077e+00 3.155149999999999899e+00 5.464050000000000296e+00 1.623799999999999910e+00 1.961740000000000039e+00 3.663710000000000022e+00 7.739150000000000418e+00 1.292210000000000081e+00 4.017610000000000348e+00 2.299329999999999874e+00 9.443089999999999762e+00 1.046579999999999977e+01 9.693270000000000053e+00 2.620799999999999796e-01 9.410310000000000841e+00 6.835350000000000037e+00 1.183610000000000007e+01 1.581839999999999913e+00 5.282390000000000363e+00 5.953599999999999781e+00 7.187170000000000059e+00 5.650979999999999670e+00 8.009529999999999816e+00 8.946189999999999642e+00 1.142609999999999992e+01 4.867639999999999745e+00 1.913569999999999993e+00 8.920680000000000831e+00 4.794550000000000090e+00 1.441519999999999913e+00 1.164230000000000098e+00 6.619640000000000413e+00 4.404899999999999594e+00 1.144580000000000020e+01 6.657269999999999577e+00 7.669389999999999930e+00 1.276820000000000066e+00 4.222199999999999953e+00 1.041799999999999926e+01 6.728489999999999860e+00 7.322269999999999612e+00 4.809199999999999697e+00 1.075050000000000061e+01 2.468469999999999942e+00 7.091709999999999958e+00 4.817470000000000141e+00 5.055659999999999599e+00 2.721629999999999883e-01 2.036189999999999944e+00 1.100469999999999970e+01 3.420510000000000161e+00 8.988300000000000622e+00 8.188259999999999650e+00 5.236180000000000057e+00 7.633009999999999629e+00 4.536279999999999646e+00 7.694880000000000386e+00 2.619509999999999894e-01 3.705559999999999965e-01 1.132699999999999996e+01 3.986099999999999977e+00 7.945439999999999614e+00
7.512150000000000105e+00 7.575630000000000308e+00 2.060919999999999863e+00 7.084929999999999950e+00 6.359779999999999767e+00 5.021449999999999747e+00 5.745899999999999785e+00 5.553160000000000096e+00 8.200919999999999987e+00 4.032630000000000159e+00 5.901960000000000539e-01 4.602820000000000356e+00 1.350570000000000048e+00 1.507770000000000055e+00 1.891729999999999912e+00 8.347390000000000754e+00 8.904849999999999710e+00 1.210030000000000072e+01 1.406540000000000012e-01 1.160609999999999964e+01 6.265159999999999840e+00 9.513310000000000599e+00 2.963439999999999852e+00 1.144170000000000087e+01 3.829930000000000057e+00 7.607660000000000089e+00 7.618050000000000210e+00 3.144080000000000208e+00 5.272100000000000009e+00 1.033709999999999951e+01 1.727539999999999909e-01 3.261150000000000215e+00 1.209650000000000070e+01 7.735190000000000232e+00 1.047990000000000066e+01 6.267159999999999620e+00 1.167060000000000031e+01 5.538389999999999702e+00 1.050419999999999909e+00 1.002979999999999983e+01 1.997360000000000024e+00 1.287320000000000020e+00 8.325540000000000163e+00 1.168060000000000009e+01 1.170919999999999916e+01 1.888710000000000111e+00 5.818279999999999674e+00 7.755160000000000053e+00 5.732669999999999710e+00 1.100079999999999991e+01 1.720750000000000002e+00 1.157549999999999990e+01 9.589249999999999829e+00 8.944530000000000314e+00 1.180509999999999948e+01 6.584389999999999965e+00 3.771729999999999805e+00 2.877289999999999903e+00 2.703510000000000080e+00 1.190809999999999924e+01 8.444499999999999673e+00 4.652590000000000003e+00 6.638729999999999798e+00 7.166030000000000122e+00 3.582300000000000040e+00 4.453630000000000422e+00 3.081980000000000164e+00 9.622899999999999565e+00 1.178159999999999918e+01 3.946299999999999919e+00 1.036289999999999978e+01 9.038779999999999148e+00 5.326900000000000190e+00 9.039889999999999759e+00 6.118730000000000224e+00 6.950910000000000366e+00 2.461180000000000034e-01 4.584500000000000242e+00 2.035750000000000171e+00 7.191349999999999909e+00 2.764909999999999979e+00 6.945669999999999789e+00 3.464879999999999960e+00 8.849830000000000751e+00 2.528500000000000192e+00 2.876999999999999783e-03 1.088080000000000069e+01 4.401049999999999685e+00 3.043759999999999799e+00 9.192420000000000258e+00 5.590130000000000265e+00 1.196870000000000100e+00 1.054850000000000065e+01 9.496840000000000614e+00 9.396330000000000737e+00 4.425200000000000244e+00 6.404869999999999841e+00 5.659819999999999851e+00 1.046519999999999939e+01 2.563089999999999868e+00 9.654059999999999420e+00 5.898089999999999833e+00 3.884170000000000122e+00 2.810989999999999878e-01 7.434450000000000003e+00 9.891120000000000800e+00 1.150609999999999999e+01 7.651659999999999684e+00 6.357940000000000147e+00 1.204490000000000016e+01 8.079710000000000392e+00 8.927530000000000854e+00 6.391539999999999999e+00 1.106119999999999948e+01 3.858070000000000110e+00 6.992370000000000196e+00 7.707129999999999814e-01 4.082709999999999617e+00 5.466829999999999856e+00 4.927249999999999908e+00 6.959680000000000311e-01 5.244930000000000092e+00 1.055400000000000027e+01 7.658430000000000071e+00 7.409650000000000070e+00 7.797430000000000305e+00 1.033079999999999998e+01 2.728169999999999984e+00 7.308440000000000047e+00 1.915519999999999889e+00 4.337419999999999831e+00 2.752330000000000165e+00 1.059210000000000029e+01 3.389490000000000003e-01 1.083319999999999972e+01 5.701010000000000133e+00 9.960679999999999978e+00 1.092670000000000030e+01 1.047509999999999941e+01 8.350529999999999120e+00 2.112150000000000194e+00 8.362330000000000041e+00 4.953680000000000305e+00 1.919740000000000002e+00 9.433850000000000291e-01 1.616970000000000018e+00 4.617350000000000065e+00 8.675969999999999516e+00 1.166530000000000022e+01 2.401299999999999990e+00 1.905530000000000002e-01 1.054879999999999995e+01 3.478759999999999852e+00 9.821999999999999176e+00 7.542620000000000324e+00 8.942180000000000462e+00 1.054739999999999966e+01 3.072760000000000158e+00 4.242519999999999847e+00 1.115279999999999916e+01 8.047750000000000625e+00 6.095480000000000231e+00 1.579960000000000031e+00 1.761879999999999891e+00 8.117409999999999570e+00 1.095590000000000064e+00 7.848320000000000185e+00 6.445089999999999986e-01 5.527219999999999800e+00 8.252909999999999968e+00 3.915680000000000049e+00 5.338899999999999757e+00 1.474509999999999987e+00 2.177010000000000112e+00 5.169550000000000090e+00 3.000919999999999810e+00 5.874259999999999593e+00 4.909899999999999820e-01 1.168679999999999986e+01 2.795480000000000187e-01 1.249349999999999916e+01 4.679240000000000066e+00 5.588490000000000180e+00 5.318690000000000140e+00 4.110570000000000057e+00 5.791439999999999921e-01 1.824100000000000055e+00 8.352840000000000487e+00 9.396200000000000330e+00 3.127740000000000187e+00 1.115099999999999980e+01 2.615050000000000097e+00
3.532399999999999984e+00 5.070179999999999687e+00 7.801499999999999879e+00 5.570520000000000138e+00 7.501850000000000129e+00 9.996199999999999974e+00 9.864849999999999453e-01 1.068360000000000021e+01 1.062010000000000076e+01 4.109250000000000291e+00 1.121499999999999986e+01 3.944650000000000212e+00 8.773389999999999134e+00 8.041919999999999291e+00 2.492210000000000036e+00 9.442460000000000520e+00 6.534740000000000215e+00 8.605880000000000862e+00 3.599720000000000031e+00 8.525560000000000471e+00 6.589610000000000412e+00 4.829530000000000101e+00 9.385449999999999626e-01 1.078439999999999976e+01 1.071710000000000029e+01 4.730269999999999975e+00 1.089289999999999914e+01 9.614800000000000679e+00 3.025300000000000100e+00 2.519589999999999996e+00 4.716469999999999829e-01 9.639620000000000744e+00 2.182529999999999859e+00 8.533020000000000493e+00 1.047129999999999939e+01 6.274709999999999788e+00 5.374360000000000248e+00 -2.318459999999999965e-01 1.108980000000000077e+00 1.179620000000000068e+01 6.139020000000000366e+00 8.941509999999999181e+00 1.032220000000000049e+01 5.350450000000000372e+00 1.633150000000000102e+00 1.110650000000000048e+01 1.171400000000000041e+01 1.102689999999999948e+01 2.676890000000000214e+00 8.917389999999999262e+00 9.217299999999999827e+00 9.612080000000000624e+00 2.292279999999999873e+00 9.963699999999999335e+00 7.050270000000000259e+00 8.514890000000000514e-01 5.256289999999999907e+00 7.639550000000000507e-01 4.394969999999999821e+00 3.489659999999999984e-01 2.201830000000000176e+00 4.062890000000000335e+00 9.937889999999999446e+00 7.154410000000000380e+00 9.783620000000000871e+00 3.262340000000000018e+00 3.104629999999999890e-01 2.129299999999999943e-02 7.608649999999999913e+00 2.319220000000000059e+00 6.841639999999999944e+00 1.044510000000000005e+01 5.365420000000000300e+00 3.320780000000000065e+00 4.409429999999999739e-01 7.425609999999999822e+00 4.001290000000000013e+00 7.848740000000000272e+00 1.091619999999999990e+01 6.876509999999999678e+00 4.130609999999999893e+00 1.111689999999999934e+01 1.015670000000000073e+01 5.416879999999999917e+00 4.173750000000000071e+00 9.972099999999999298e+00 1.152630000000000088e+01 1.538329999999999975e+00 1.173719999999999963e+01 9.839299999999999713e-01 1.716290000000000093e+00 2.435989999999999878e+00 4.850419999999999732e+00 3.307100000000000151e+00 9.657159999999999300e+00 1.965300000000000047e+00 1.872489999999999988e-01 3.608229999999999826e+00 7.832740000000000258e+00 9.879440000000000666e+00 8.419969999999999288e+00 1.069110000000000049e+01 9.738920000000000243e+00 4.363789999999999836e+00 5.160519999999999996e+00 5.501759999999999984e+00 1.035810000000000031e+01 7.288389999999999702e+00 2.220489999999999853e+00 7.406039999999999957e+00 3.049560000000000048e+00 7.659510000000000041e+00 9.168190000000000506e-01 1.121059999999999945e+01 6.955630000000000202e+00 1.326160000000000005e+00 7.698170000000000179e+00 1.379359999999999919e+00 6.844599999999999795e+00 5.881230000000000402e+00 3.518780000000000019e+00 6.007339999999999902e-01 8.122350000000000847e+00 7.858200000000000074e+00 4.550159999999999982e+00 1.107820000000000027e+00 7.017900000000000527e-02 7.665460000000000385e+00 1.958610000000000073e-01 1.024409999999999954e+01 1.926949999999999941e+00 2.616999999999999882e-02 6.196579999999999977e+00 6.558849999999999625e+00 7.347459999999999880e+00 4.821939999999999671e+00 2.918680000000000163e+00 9.418029999999999902e+00 6.965720000000000134e+00 9.996620000000000061e+00 9.538190000000000168e+00 1.078059999999999974e+01 1.564720000000000111e+00 5.358950000000000102e+00 9.436400000000000787e+00 7.782429999999999737e+00 6.629419999999999646e+00 4.062899999999999956e+00 5.708230000000000359e+00 4.820180000000000020e-01 6.809120000000000061e+00 5.064289999999999736e+00 1.062930000000000064e+01 5.983570000000000277e-01 4.147990000000000066e+00 3.130780000000000118e+00 7.396629999999999594e-01 5.528830000000000133e-01 3.344240000000000101e+00 9.587260000000000559e+00 1.168469999999999942e+01 8.254429999999999268e+00 5.244970000000000354e+00 5.655219999999999914e+00 2.915070000000000050e+00 3.870470000000000077e+00 3.286770000000000191e+00 5.829889999999999795e+00 2.070850000000000080e+00 1.068399999999999928e+01 5.414900000000000269e+00 2.540999999999999925e+00 1.941619999999999902e+00 1.157890000000000086e+01 3.925940000000000207e+00 1.778410000000000046e+00 2.782029999999999781e+00 7.689079999999999693e+00 9.400339999999999918e+00 7.867859999999999854e-01 5.094079999999999941e+00 8.345570000000000377e+00 4.622790000000000177e+00 9.160159999999999414e+00 -5.625399999999999845e-02 3.421730000000000160e+00 1.185999999999999943e+01 9.194480000000000430e+00 8.352470000000000283e+00 7.007799999999999585e+00 4.372220000000000439e+00 4.606790000000000163e+00