-1.049718695881632630e+04
-1.049568929365015538e+04
-1.049692493952545374e+04
-1.049120512436763238e+04
-1.049661805594422003e+04
-1.049649349651236480e+04
-1.049567769133476941e+04
-1.049484169977217789e+04
-1.049450086307666243e+04
-1.049007995611219121e+04
-1.049384243142896048e+04
-1.049761144014513957e+04
-1.049464555772793938e+04
-1.049066403094542693e+04
-1.049687466634676821e+04
-1.049518994285447297e+04
-1.049470525520890078e+04
-1.049675919785978476e+04
-1.049901799181521710e+04
-1.049411157783968883e+04
-1.049756492889450419e+04
-1.049596324165864098e+04
-1.049345147296638970e+04
-1.049456187372989916e+04
-1.049423274358343588e+04
-1.049774751385532545e+04
-1.049701941416592126e+04
-1.049838015141393771e+04
-1.049915886764087554e+04
-1.049004846972857194e+04
-1.049893143277269155e+04
-1.049055542722409882e+04
-1.049401242268873466e+04
-1.049516344102211406e+04
-1.049541848340429533e+04
-1.049676069917886889e+04
-1.049787544432372306e+04
-1.049408435837487377e+04
-1.049776529458496225e+04
-1.049883280874156299e+04
-1.049321770957311855e+04
-1.049482066609424328e+04
-1.049218369015379722e+04
-1.049519092797791563e+04
-1.049710738316387688e+04
-1.049170224035314277e+04
-1.049811559283699717e+04
-1.049036597094340868e+04
-1.049594492424778764e+04
-1.049711042936338163e+04
-1.049297417967944602e+04
-1.049354109419485394e+04
-1.049774321276513183e+04
-1.049749226995267964e+04
-1.049678982247276508e+04
-1.049487140278659353e+04
-1.049848588714589823e+04
-1.049474700380297872e+04
-1.049642077994445390e+04
-1.049780959878416070e+04
-1.049391163361112558e+04
-1.049752264038140311e+04
-1.049417348665569807e+04
-1.049609884195140876e+04
-1.049971737086393659e+04
-1.049817398193197550e+04
-1.049335736288864609e+04
-1.049661967605942664e+04
-1.049920011981504467e+04
-1.049562390340095044e+04
-1.049716594663752221e+04
-1.049685459744721629e+04
-1.049502552330212529e+04
-1.049670545345381106e+04
-1.049395941402293829e+04
-1.049735606514375286e+04
-1.049410216875175684e+04
-1.049781687398381655e+04
-1.049363340547446751e+04
-1.049764619468790261e+04
-1.049542981625312495e+04
-1.049446640310891235e+04
-1.049382541994724488e+04
-1.049752817864187818e+04
-1.049804662656303299e+04
-1.049397695449318053e+04
-1.049361875180216521e+04
-1.049382969847241657e+04
-1.049268076673286851e+04
-1.049434520148339834e+04
-1.049755201905229296e+04
-1.049795975401140822e+04
-1.049433611637314243e+04
-1.049624040121162579e+04
-1.049753400263007825e+04
-1.049579171113523444e+04
-1.049538250412060006e+04
-1.049553146945647859e+04
-1.049997442338803376e+04
-1.049509227121777440e+04
-1.049590392909191360e+04
-1.049449350347312975e+04
-1.049470763419576178e+04
-1.049769378752738521e+04
-1.049477034515537889e+04
-1.049729145233510462e+04
-1.049521588313950815e+04
-1.049539338131799923e+04
-1.049752934428216031e+04
-1.049760195109072811e+04
-1.049569485432871807e+04
-1.049732479214704472e+04
-1.049943709580557879e+04
-1.049386931658030153e+04
-1.049857421196879659e+04
-1.050062803864154739e+04
-1.049488387843941564e+04
-1.049829153657774805e+04
-1.049293993737191340e+04
-1.049773796912603393e+04
-1.049805619084142018e+04
-1.049669105330061939e+04
-1.049200468449467007e+04
-1.049825064381452285e+04
-1.049282848156064574e+04
-1.049925110397603930e+04
-1.049887432626948794e+04
-1.049869812275311961e+04
-1.049496426746829457e+04
-1.049279130757273379e+04
-1.049650633361307700e+04
-1.049495378707713280e+04
-1.049782505680279064e+04
-1.049533246662391684e+04
-1.049637872045205768e+04
-1.049914969183189714e+04
-1.049272455956706654e+04
-1.049447078797348149e+04
-1.049780859029100975e+04
-1.049787041609136941e+04
-1.049786417932637414e+04
-1.049837023822802439e+04
-1.049454129297405416e+04
-1.049728503591120534e+04
-1.049937941378789401e+04
-1.049443062216626276e+04
-1.049678626316530426e+04
-1.049845017879534862e+04
-1.049266552062673509e+04
