4.852019274719530095e+00 -4.888249203557659683e+00 -1.361394494856169812e+00 -5.634783404033997245e-01 1.240021970677658292e+00 3.262488225436768197e-01 6.095519947971701769e-02 -1.124458596977237379e+00 -7.049790027746963839e-01 -3.234087819939296393e-01 -1.219755507134903549e+00 5.089807236185450723e-02 -1.397718526069928191e-01 -6.932228906891777509e-01 3.037727529458317810e-01 3.165629627220151177e-01 -4.217689044555691241e-02 -8.758102957664941346e-02 -5.494190341077928585e-02 6.671292789462175687e-02 4.630171124399919402e-01 -2.668640528736515583e-01 3.784962098435245004e-01 -9.646845902322643829e-01 5.274258176832616329e-02 -2.949091319145097922e-01 -2.878977335991372288e-01 2.678600982375589079e-01 -5.253216268577022285e-01 -1.301102125770916551e+00 2.026378959546911163e-01 -5.266493445291573483e-01 5.586852898938590023e-02 7.926716182284587742e-01 -1.484370358964811842e+00 2.397982556041021951e+00 -2.636671432053955821e-01 1.751322343566510953e-01 2.328781314508843625e+00 1.396242712856498314e-01 2.542101115649103571e-01 -4.677880514623627972e-01 -1.169843195724319163e+00 -9.991358299047990721e-02 1.264453107117824160e-01 -2.388284354924195885e+00 -3.273723946242846905e-01 1.802967578506453838e+00 -6.726736057989015638e-01 -3.112109543856457772e-01 -6.158244580645639843e-01 -1.127236931051161628e+00 1.304119058218022653e+00 3.805942300215017227e-01 -3.858423657902360637e-01 4.184264703484974479e-01 4.090177754474068061e-01 -1.818633824276614519e-01 -8.414706419710722002e-03 3.652879386936412343e-01 2.766481288359979307e-01 1.875627982229135737e+00 1.008729644233358202e+00 -2.686622824232560713e-01 6.629589496218558642e-01 -6.199541639590089304e-01 -3.281077301278404468e-01 -3.991457677570128260e-01 1.557198912834110716e-01 3.672157518424738476e-01 -1.982078852112415523e+00 -5.735858611431842169e-01 4.258178777108123647e-01 1.328149616785971598e-01 6.930511409981374160e-02 -6.865020270308045403e-01 -1.687100300412605280e+00 1.142251659280759002e+00 1.391852811322333627e+00 -1.351274118600588603e-01 -2.600172051604733858e-01 -5.239795110085549990e-01 -7.994094511676832493e-01 -8.083604897064209371e-01 -9.556487052892699285e-01 1.945711626365581148e+00 -9.070245165614879701e-01 1.057037073051916298e-01 -3.642893222265746606e-02 -5.623295715118308280e-01 -2.413556242097448512e-01 1.072395814884226306e+00 1.024304358731048303e+00 -1.358776597619384789e-02 -8.119543777024706629e-03 -5.489166405504684043e-01 6.554605843681146071e-01 -1.093025318193072248e+00 -1.051241806530885947e-01 1.440655948830001920e-01 1.022363175845787397e-01 -1.691348791273009078e-01 1.237892583041137806e+00 -1.795734036878119388e+00 -8.885696523047659223e-01 2.903526228956233579e-01 1.186518856594815263e+00 1.436435740104350156e+00 2.589522542318971610e-01 5.038308039904955127e-01 -6.856257950741198592e-02 -1.238706080080735766e-01 -7.609951130854252128e-03 -1.032542687474031773e+00 -1.989360216259513370e-01 1.514117508297117276e-01 1.176405165207448533e+00 -2.630511068884306969e-01 -7.403064744039157263e-01 4.770548214690608080e-01 -1.002884498311037986e-02 -1.305793360595349561e+00 1.092975953012413903e-01 -1.389665830975044813e-01 6.845335904520553072e-01 3.932265740637050366e-01 -2.863252469069180184e-01 -1.659022311251308501e+00 4.712837233177277207e-01 2.224029943813851662e-01 -2.499199688333259561e-01 -1.062240985846310964e-01 -5.787301243442833920e-01 -8.397737138859436012e-02 -6.845294766870003711e-01 3.335214449400327186e-01 1.137351136659160211e+00 -1.082537788406345181e+00 3.832625208802086236e-01 5.009295711855572542e-01 8.103556657580268663e-01 -1.302464296224706386e+00 1.188307315952414622e-01 1.968569761892896119e+00 -9.801045243197652537e-03 -4.821862291543634327e-01 -6.417062109071990095e-02 1.446321117531172540e+00 -8.570232449815924358e-01 -3.286615457483506586e-01 -2.787224948649097422e-01 7.901514229117266586e-02 -2.456642788840760760e-01 4.080530975420428308e-01 4.964769347343060968e-01 6.252136125816439849e-01 -4.507976875651699689e-01 -3.243575190597061675e-01 -7.190948733398074832e-01 3.161279320674639792e-01 1.218213873680595860e+00 -4.604388101918600595e-01 1.397476842372955552e-01 1.288927438091066024e+00 8.609344071074980231e-01 -2.971269654997097526e-02 2.061629298081351536e+00 -2.984859477855818177e+00 3.317615248275015638e+00 5.536099322574287163e-01 -4.987261357780493065e-01 1.030577336219073992e+00 -5.467851960314205062e-01 -2.488987266584576363e-01 1.657312527650383061e-01 4.013990825658109718e-01 -6.794875433916408580e-01 1.494777670332969322e-01 -2.655239939070317967e-01 -4.770532788071651931e-01 -1.370693660762674737e+00 -4.158419974527832741e-01 2.995746557073498614e-02 -1.017580923969515772e-01 1.545700939505784688e-01 4.828279765029212522e-01 -4.961606376236508353e+00 4.769429784816319184e+00 1.570448321634542621e+00 9.085764344284329441e-01 1.484702031272359779e+00 -1.907581652292740459e+00
-1.315335238640090998e-01 -6.407189072940332360e-03 4.191155259951860612e-02 -3.467523417977177447e-01 3.336767395708536421e-01 3.246583381293425413e-02 2.040134361449090217e-01 -1.250077555133625173e+00 -8.697939143737652701e-02 -2.099912509902486235e-01 6.709771919344047486e-01 1.174155964163705185e-01 4.444689685606511453e+00 -1.077454717460436973e+00 -6.566124385834747335e-01 1.230643100573215465e-01 1.033470341493902267e-01 -4.594885304641880275e-01 4.393773615522540976e-01 -2.980981740070983488e+00 -3.493059614555203973e-01 7.384763631751360968e-01 -1.237585079103287189e-01 -3.580225153861313347e-01 3.161644417323258849e-01 4.876904467977626889e-01 1.389676629608313840e+00 -2.255834489894217171e-02 -1.131552784814338908e-01 -9.487679190143892549e-02 -1.995191478224773718e-01 -1.511502182163491748e+00 -7.972826346343219184e-01 1.745805784627947110e+00 9.342211315597818144e-01 -1.751173219583272711e-01 -7.472777635100034122e-01 4.645638881006182719e-01 3.379838515832892520e-01 -7.028830394792463798e-02 6.564741132335051299e-01 2.609196623693826877e-01 2.206088785968354782e-01 8.137448939425974137e-01 -1.165625043881194783e-01 7.910240553239883399e-01 -2.701504369318507570e-01 3.369718653797943997e-01 -4.807538161622621153e+00 8.471387417298442912e+00 -1.242901606216058275e+00 8.329752029121600954e-01 9.204816704971900965e-01 -4.972359243869273193e-02 -5.840080849096653814e-01 -5.274052488579874520e-01 -5.515756754378018378e-01 2.519835362289687963e-01 4.202118443823055216e-01 3.785363190528093780e-01 -9.840573383168513821e-01 2.031680574261358341e-01 -1.110139609262542626e+00 4.109923826737383323e-01 2.724135219326541402e-02 2.046757523187410777e-01 2.916710845957051768e-01 1.322899938355341920e+00 -5.741273354685298355e-03 8.503702584466242831e-01 -4.690463493485171886e-01 1.277856267887181430e+00 1.140798471775130718e-01 -1.017039449644170146e+00 -7.662031396448746312e-01 -3.383699284336875834e+00 2.475708032987496754e+00 7.606403008494438955e-01 8.170292211182692554e-01 -1.294175573859800421e+00 4.685254438484459660e-01 -1.136799892141809432e+00 -6.050695335492711768e-01 -2.383182772035540964e+00 5.391613609435059740e-01 1.014618498909386490e+00 9.532550082479749332e-01 -8.356270387106473629e-01 -2.318457306883046964e+00 -8.283389896953357034e-01 -1.154168208203417145e-01 1.196539988268447915e-02 -6.100302199847974088e-02 -9.347682623120778800e-01 -2.468315597183917964e-01 9.560132877172569099e-01 2.201476226900595801e-01 6.738120902778332866e-01 1.694416117342037120e+00 -3.904199578550285321e-01 1.380342496698842680e+00 8.393211997299092619e-01 1.596860750169254092e-02 -8.415174360485713212e-01 -1.211874047510428654e-01 -3.030175171038231419e+00 -1.982640381042404032e+00 3.717999259313541138e+00 -6.678610149053503253e-01 1.099692702905732400e+00 -9.167062626180947360e-01 1.572577709271063329e+00 -4.637925571528325741e-01 9.412345867576817071e-02 -5.990084149615708675e-01 2.482037060524394878e+00 1.687154807799582379e+00 -2.315216688461083083e-01 4.517705930006437609e-01 1.233641006856942557e-01 -3.089545542530564570e-01 -1.023655926514276393e+00 -2.300835994270565621e+00 4.062173298863126503e-01 -1.140409206756815008e+00 1.153373223106566092e+00 8.343296600564718002e-01 3.228827857096029597e+00 7.678429892398671575e-01 -1.813892710050891421e-01 -2.237584799669606050e-01 -7.539106954403290706e-01 1.997695732701918192e-01 -8.223004968154369598e-02 3.877388114805252473e-01 -8.514964016303915306e-01 -3.643731401895673461e-01 -1.536088099013846575e+00 1.106556519899761781e-01 -5.234406077863686113e-02 7.031905434170970803e-01 2.178295160816474674e-01 3.173312083460097521e-01 -1.300945802698832088e+00 3.439045879384927673e-01 -6.062095606900986394e-02 -4.925719432559827471e-02 3.670789691543997479e-01 4.211179011356377955e-01 1.475314419417174949e-01 1.866058336270273621e+00 -2.881625058024805064e+00 -2.476438226284733535e+00 1.065897094538815204e-01 9.920683815405539896e-01 -3.064302451712696551e-01 -2.143544130515567248e-01 6.463269975050676130e-01 2.334715934821107036e-02 9.651319621819800521e-01 -7.791213903583904532e-02 -2.831951859208034494e-01 -1.356151501293753947e+00 -1.387434113432784999e-01 1.406292126664882902e+00 -9.481611386687978371e-02 -1.276243157765045488e+00 -1.586992856243915340e-01 -2.217007746865209850e+00 -2.162784723897766437e+00 1.208727017243462626e-02 6.465161792755277581e+00 -3.858436513418156633e+00 -2.271415375039489287e-02 1.372506288489971360e-01 -1.214249232608977103e+00 -2.276598719008609550e-01 -5.673267676122186742e-01 -4.229104742582919796e-01 -3.009388830436668938e-01 1.419915888085306666e+00 -2.178492621539107610e+00 2.276295328835813980e-01 -8.549771610874327132e-01 5.147183974288073172e-01 -2.227902025171735745e-01 1.678719532554596994e-01 8.270015018318751521e-01 -1.283395966754178552e+00 -2.472744065265472191e+00 1.891200639844297982e+00 1.852880404137670300e+00
1.326658891174217869e+00 1.363466289781922303e+00 2.279119942766605345e+00 -5.332215984249237817e-01 -2.264195717368214511e-01 -1.876601916105873347e-01 -4.487865706739766480e-01 3.707222223311078535e-01 -6.696078223917689698e-01 2.788586604882255404e+00 -7.952113539292013367e-02 5.799236304308238443e-01 -1.473987215966351849e+00 2.324909747371591007e-01 3.588175004829824988e-01 3.150732655515248865e-02 -2.399507734435110326e-02 3.279858598380903101e-01 6.659943940117086791e-01 -1.096305017383057079e+00 7.049296375940379555e-02 -1.622396946747281243e-01 -1.178372573344934060e-01 -8.821614347905619713e-01 -7.067556350577628432e-01 1.353171592732141659e-01 4.555146334211957471e-01 -2.021142136632077868e+00 6.564586866145494248e-01 5.896696540664128072e-01 2.026749198401848195e-01 -3.344917792723471894e-01 3.270453503024235431e+00 4.330879290040090535e-01 8.491227591937388075e-01 -6.765498009218409714e-02 -2.441180174440815420e-01 3.077852165362132131e-01 -3.187396586566666051e-02 -2.232361860711832957e+00 1.495848791909127451e+00 -4.432098479214855447e-01 7.820524479599763046e-01 6.625316322767825783e-01 1.205724997194680626e+00 -7.802773583388054046e-01 -1.641623656172421120e+00 -5.097607963170723844e-01 -4.482553807612681407e-01 -2.790109726393816270e-01 1.379986656021597646e+00 2.480881092543980149e+00 -1.894465940856591424e-01 1.721652327328984100e+00 1.072354163013045758e+00 9.349965762726224483e-01 -2.424951371299403080e-01 -9.751700631364639271e-01 6.930737667059391205e-01 1.560116086478636532e+00 3.527820929268749017e-01 2.377416816090526519e-01 1.554262713026206555e-01 -1.369865765545384750e+00 1.927879997514669874e-01 1.359187974124870767e-02 4.031947410122562192e-01 4.776158361784169082e-01 -8.798541268154188577e-01 1.736332812147874494e+00 1.762048985947051449e-01 5.792746839934200809e-01 -4.798331555429850015e-01 -1.132800284067224217e+00 -1.753205933741003753e+00 1.553284665384414120e+00 6.296729339011093440e-01 -2.951472160670596395e-02 -1.328695204876372271e+00 1.905501115616246022e-01 -2.503037316908809373e+00 3.417098942817263507e-02 -2.167635367118075640e-01 -1.442817732366329597e+00 -8.734325395647865031e-01 1.840097393450332852e-01 3.914483991187429068e-01 1.411719211213503522e+00 -1.121007662316843678e+00 -1.498279512835916372e-01 -8.463526526499242086e-01 -9.129267409739445782e-02 8.367156437882889986e-01 -5.560190559176796388e-01 -3.183512163913616355e+00 4.213991798212637363e-01 -3.738929067471391532e-01 -1.475988048444908107e-01 6.508999615841732922e-01 -2.470948406819027110e-01 4.452425620792170302e-01 1.045436255597218533e-01 -1.424648260560288336e-02 -2.200555771969571472e-02 2.826881643777922615e-01 -9.037736137268869152e-01 4.283159615403745457e-01 -2.869424145092729805e+00 1.645552301799809714e-01 1.038967360048455246e+00 -3.473197328429089126e+00 -9.096732670361843409e-01 -2.672065238144684662e-01 -6.119379785289873891e-02 -2.370540657801332163e+00 2.835875362629104446e-01 -1.835766113068199701e+00 7.367727502217933377e-01 9.215450787638707064e-02 2.743783589669803735e-01 1.676648251849476523e+00 -2.074917787649805057e+00 -1.213292268013090647e+00 2.994723258016102063e-01 3.686211168293394569e-01 -7.735379827376853701e-01 -8.331659787665789130e-02 1.051971999828123172e+00 1.666907884640838056e-01 -1.918285154744846954e+00 1.855421168279676625e+00 2.159801730012363308e+00 1.315767183970851240e-01 6.669945531406709094e-01 -1.464104409642688898e-01 -1.731730537492753019e-01 -6.365434357633530105e-02 1.717836296019972231e-01 1.670596389233149237e+00 -9.657706242067466418e-01 8.170035100866762656e-01 2.153797689914798696e-01 -1.237057488735001654e+00 -3.208181384506332834e-01 -5.926552190549755350e-01 4.842899057592911505e-01 9.674320710682772217e-01 1.159140721713475819e-01 -8.876024032962428478e-01 5.562324574799003551e-01 8.865132839979691370e-01 -1.757709992255440667e+00 8.907427486949944795e-01 7.912744807717028150e-01 1.576298095542549849e+00 1.841532069013214201e-01 3.022100364456178356e-01 -7.534844065365193799e-01 -2.262071986158644687e-01 6.484486718321101906e-01 2.075589359795010136e+00 -3.325338327944878714e+00 -5.058275227039967792e-01 -1.229671223579005407e-01 -2.570016096870101574e+00 -1.218289978334110568e+00 -6.142005493091590163e-01 7.309543437723292625e-02 -4.448368420006816870e-01 2.032030244291021526e-01 -1.452364752617389509e+00 -4.365352641199795602e-01 -1.220139115726268875e+00 -3.677037472221062614e-02 1.087223366803827806e+00 4.729631679013733270e-01 4.101362053216961456e-01 -1.160861303947670065e+00 1.698759224798702894e+00 2.528227957222228817e+00 3.461039095809458344e-01 -7.415148928887800306e-01 1.345974046548036762e+00 1.345487593830299922e+00 -1.347859693605057141e-01 -6.345189491357313694e-01 1.898752484043752409e+00 -1.566174633963177687e+00 9.293550617205172948e-01 -7.585355958032523604e-01 -2.219083141335385367e-01 2.044541232264106279e-02
-9.311250091353698299e-02 1.702537718001589484e+00 -1.405817501021678684e+00 -6.662576749752195937e-01 -2.142361423062295323e-01 -2.917122222462537398e-02 2.491279662161395514e+00 1.220157113448383956e+00 2.902575435007929805e+00 7.886175027668967941e-01 1.537319657427144604e+00 1.251314769973873586e+00 3.232000084173956567e-01 1.959240771189743047e+00 5.151174326391285696e-01 -9.579884091642201227e-01 -1.575674860136739089e-02 8.609894287151067527e-01 -2.369141977682680533e+00 1.155634251224841869e+00 -6.909834598374396952e-01 -6.376047871475062356e-01 -5.801416599787313499e-01 -1.704872793890853000e+00 -1.812991795503877901e+00 -3.079725471123988534e+00 -3.477072495110765438e+00 -8.646002859920076666e-02 -2.589172872289308147e-01 2.012320167471936261e-01 -7.204745272950802137e-01 -1.126286137102857632e+00 -2.195665533760609855e-01 3.301101052682923198e-01 1.460397393107630393e+00 -6.249030233200023599e-01 3.200858882708686348e+00 -2.656155251795023695e-02 -6.527389174078209955e+00 -2.490900167335085291e-01 1.150913191603761127e-01 1.603862378292621793e+00 -1.146475467550833877e-01 1.038898968704418335e+00 -1.084221860975677520e+00 3.286600030864550992e-01 2.589429982605237490e-01 1.688839394589546350e-01 -8.097329445728476682e-02 2.672139800136303922e+00 -1.157234505831181481e+00 8.794916012699595109e-01 -8.896479729697705230e-02 -4.386188861202648392e-01 -2.219090854644863331e+00 -6.301742990171701475e-01 1.105389239065445867e-01 9.636036984641005443e-01 2.491173732711233324e+00 -7.929611244441943096e-01 2.461193641432696255e-01 -8.179280787827555299e-01 5.248377452431245427e-01 -3.888850092689349336e-01 1.133162295392051849e-01 -2.011029473685974345e-01 -4.113189127749676266e-01 -4.305944731601336062e-01 -4.291068328721708292e-01 5.603755331107735937e-01 -5.774142337473607833e-01 -1.362694958834136383e-01 -2.060156570191712611e+00 -8.927708348670391203e-01 1.705288284161393442e+00 -3.734105677944571378e-01 -2.290127863832771837e-01 -1.881049924571437659e-01 1.030281145135123921e+00 1.696778961145421205e-01 2.161477060830953700e+00 -4.854088498542123431e-01 1.712533138643629105e+00 8.213964969446322373e-01 1.187541127210947289e+00 -2.145955825278976992e+00 -1.056015316656416125e+00 8.874049425736095786e-01 1.099921016866276746e+00 -5.921409984231184032e-01 -4.798228711303479943e-01 -1.535540454040918990e+00 6.824345418328143786e-01 1.104925926276142611e+00 -5.601970985515191126e-01 3.114217848447071724e-01 6.220377859592942649e-01 -7.603523372956036419e-02 9.042055590576468793e-01 1.378794178376320678e+00 5.035197005082218125e-01 -1.361706626779707108e+00 1.991813048673471975e-01 4.889240620935880188e-01 -3.206587300547575348e-01 -2.005578734988288647e-01 -1.407136476942392411e+00 -5.943912279081252636e-01 -7.433722578110480983e-01 7.165299408281039506e-01 -7.283811837305160797e-01 -1.152553041198753681e+00 -5.266920248416014916e-01 -9.817351179433843056e-01 -2.111965841513218090e-01 -1.599299698626152733e+00 -5.045995638351219448e-01 -8.710753521883531914e-01 -2.463075688945293440e-01 -1.751851476596692159e+00 -1.719365588179115445e+00 -9.459849569547782444e-01 -6.704994809674094114e-01 7.333254151058228310e-01 -5.150022472175924682e-01 7.678213919733292148e-01 -4.425300482461704377e+00 -3.970364861471979978e+00 -1.805814303924415443e+00 1.976609601471982725e+00 -2.023288493549449674e-01 8.291581431618841869e-01 7.849999606217815673e-01 3.948036887416109253e-01 3.269908429154467222e-01 3.305003987278719024e-01 1.923853649967228463e-01 7.168050488661474873e-01 -4.457994630235183053e-01 -8.705220507884748882e-01 9.674382417158594594e-01 -3.022655722738584183e-01 2.108777673595703950e-01 2.887420838766467379e-01 -3.120481055743092313e-01 -5.140026023092620910e-01 1.470763566825239177e-01 7.061092597235183455e-01 -3.888623835611332291e-01 -3.436356505480314127e-01 2.406796297671053964e+00 6.625614570734302822e-01 7.267788722416491931e-02 -2.201326588696725484e+00 1.965349712296206475e+00 3.409156290937597422e+00 1.282898201182540998e-01 -1.762467561541383176e+00 8.307188027795708862e-01 4.355001379880510393e-01 -4.907186920987695045e-01 2.428069605210985138e+00 1.751475067094172333e+00 2.340218095581978602e-02 6.684364277923984243e-01 -1.394287646014177318e+00 2.943411752266234860e+00 -1.833227405808720845e-01 3.481165691340348256e-01 3.992287115449314694e+00 3.069742391777113166e+00 -2.760130663556543268e-02 -8.975206908435037767e-02 2.921199992073164609e-01 3.537205455800142562e-01 2.846298614836849650e-01 -1.247447316601675960e+00 9.389128806048465670e-01 5.763431121712023764e-01 -5.595995741773011067e-01 6.042241548304981835e-01 -2.399256280546132380e+00 -8.103854905546746812e-01 5.065577160012341151e-01 -1.837428588370994265e-01 5.000106589164285964e-01 -1.200002235782742233e+00 -6.804131405289837176e-01 1.064235133456652882e+00 8.861574433207241031e-01 -1.583052383541993846e+00 1.513884052130254121e+00
4.455742343867649113e-01 -3.207708301525023353e-03 1.548631997107370595e-01 2.266324590784103699e-02 -1.638882860204622371e-01 -1.460864819661988889e-01 -2.379858335650584245e+00 8.996598486720296106e-02 -4.024156967549926023e+00 3.173718317759264829e-01 5.584955424807037661e-01 2.097680792360226143e-01 6.062445276930648053e-01 5.872538455379477940e-01 -1.554180437725109429e-02 8.771575538219598955e-02 3.317448126569662592e-01 3.000194565539062719e-01 4.758253199382903031e-01 -3.445972431296043248e-01 -8.031663471040316471e-02 -4.760315224116649646e-01 1.151792508884236899e+00 -2.316063609841751969e+00 2.085272648513512572e-01 -4.254044443227992800e-01 -7.399892002740598995e-02 2.007300345663746377e+00 -1.775089621170949372e-01 -3.341014858127676068e-01 -5.188481033232521522e-01 -9.227231582314554537e-01 6.178031790559503911e-01 -7.529064225463119597e-02 -5.402463664767246376e-01 -3.760212659423959325e-01 -4.560123989928335786e-01 -2.095896446767681609e-01 8.257483461520394030e-01 6.716091690909571366e-01 -8.415272062405765308e-01 2.891505293245308916e+00 -1.481447528893335530e+00 -2.141497532400775672e-01 3.398838968180015185e-01 1.968719400096766436e-01 -1.995366313239605172e-01 -1.534316094716466905e-01 6.062105891313623873e-01 -9.318809134641998781e-01 -5.809870386975044682e-02 1.987992389378773206e-01 8.312916445634597196e-01 6.440099193379191476e-03 2.047765395625850970e-01 -3.250902834601025835e-03 2.076088668028543693e-01 4.420147991730495329e-01 -9.312124266427854180e-02 -9.688739457200046257e-02 4.337584727079508151e-01 -6.807761802950750285e-01 4.276181641429443459e-01 1.487123496227775288e+00 -4.633847801917697629e-01 -7.786894450276303781e-01 3.737185859529396081e-01 8.854982124706831104e-02 4.591424599789481475e-01 -7.723465335336722193e-01 -1.409793454947198432e+00 -1.440866779289063371e-01 2.762290390210343088e-02 1.892802437112533154e+00 3.220100504532149799e+00 -2.772286839293646721e-01 8.087708377706429586e-01 -1.558325056017877963e-01 8.474751962892683732e-01 -5.148484952486672706e-01 3.394151332900004814e+00 1.189632976741342496e+00 -1.014792819703586257e+00 2.377139136949323397e-02 1.070799159822309887e+00 1.044112651690818350e+00 -1.018153251532772918e+00 -1.278749469124717209e+00 1.276645278299157749e-01 -2.049117795887635263e-01 2.887050599911530346e-01 1.685872341543730515e-02 7.115440575816168733e-01 -1.401852859950059871e-01 3.894532230671370887e-01 2.127351322818384904e-01 -7.288866626116318193e-01 1.621332510039337205e-01 3.492799933136116586e+00 -1.031706564726632275e-01 -1.530156049804742291e-01 -3.026707781317618529e-01 -2.850668461766371564e+00 1.321441608643395105e+00 -1.359831264135324069e+00 -2.903089141419154529e-01 3.956053587066762911e-01 -3.143369016067054655e-01 3.893633887227515800e+00 1.641567091902916831e-01 5.563764392568202322e-01 1.513256188738756558e+00 -9.601743610702450082e-01 3.521378773192842537e+00 1.286416498745707626e+00 -2.210907033288856405e-01 -5.578676790892060922e-01 2.978324762066177356e-01 8.793532759199898519e-02 3.690139813920783052e-01 -2.443229857879397837e+00 4.247097322491601989e-01 -1.331083759711348735e+00 -4.591664226603926480e+00 1.067254122786286397e+00 -3.370482271436252120e+00 -1.045040305710688566e-01 1.946505068800536697e-01 2.092502590597424272e-01 7.126223782466213630e-02 2.026769767227122321e-01 -5.565708146556622715e-01 3.666495949267990495e-01 6.036878227114710338e-01 -1.431463740814923336e+00 9.041237979771816757e-01 -3.244891595414616248e-01 9.877170465537787880e-01 -7.699471800654266174e-01 4.724921418025921915e-01 -9.062418727598013923e-01 1.114650352645193687e-01 -3.341261684030968349e-01 4.873577460489510182e-02 7.898691157848372058e-01 -5.784102791112680775e-01 5.086634494886891344e-01 4.576105967166456678e-01 1.283947211271529720e-01 -1.119304049363501093e-02 -5.302710004393274001e-01 -1.132900042869804669e-01 7.312654472546029627e-01 6.036668939317545224e+00 8.077069152833306065e-01 -2.441987500832831226e-01 -1.653064551010611227e+00 -3.752154822122757971e-01 -9.290830390062649879e-01 4.229341284073573903e-01 -3.764506401699966448e-02 -2.968811680376819973e-01 -1.005964165675230504e+00 1.476538264520995125e-01 6.692704936572707597e-01 -2.680513883126097952e+00 9.358656091404610189e-01 -2.094148610839999147e+00 -3.829807279739509407e-01 -1.932765093517313237e-01 -3.990533108874049439e+00 3.439570384429421757e-02 1.395330999676215322e+00 -9.186088789559662682e-02 -1.440342788465200918e+00 -5.794659740684710014e-01 8.969113393947529822e-01 -5.788309115881273836e-01 -1.574535347216543313e+00 5.733050966781901847e-01 9.589638857028531804e-01 3.714349321268618498e-01 1.184139557731212156e+00 -1.744647759765004802e-01 -1.142652751373607778e+00 6.756612276699917041e-01 -2.721939497228511029e-01 2.995797979136684622e-02 2.169121464744142580e-01 -8.982267157710437377e-01 -1.089921482459182078e+00 -8.799924521653884613e-01
-1.182614893557755731e-01 9.018134046782474433e-01 -5.599014216882011175e-01 -3.988423775842171448e-01 2.513304760265102078e-01 -2.577772600881035325e-01 1.659611608095416635e+00 -7.809124208191489114e-01 -4.330601610898888176e-01 1.687435058043944336e+00 -5.511514434165196707e-01 -2.076808576913143356e-01 1.289764589279729590e+00 -1.671917936257022674e+00 1.373130552337045840e+00 -1.312980622366817229e+00 -2.259102362009669740e+00 3.154724036059724401e+00 -1.982886178504431385e+00 -2.635473297981728580e-01 1.818764436317106048e+00 5.175332411675934718e-01 -3.333233157305781624e+00 1.299199509433045074e+00 -9.770243427349406540e-02 1.617820383123752537e-01 3.794238638633948280e-01 1.876226535044617505e-01 -3.230349435945695236e-01 1.250693591450590114e+00 -2.718231966472821060e-01 -7.481108009336119302e-01 3.392354646012296082e-01 -5.054927650726578348e-01 -7.826921384260067116e-01 -1.306016532349575598e+00 3.701216126330986733e-01 1.596279680855255678e-01 6.221863957219009311e-01 1.716163536304540660e+00 -6.505662323940980540e-01 8.127154242376194437e-02 9.314762218269283522e-01 1.105413921655775233e+00 -3.092636008528026337e-01 -6.596509682971186672e-01 -2.030231500520784493e+00 -9.814810929512468585e-01 4.518693233619603400e-01 9.025127447375732581e-01 -2.779521923583877507e-01 -1.490899932548134244e+00 2.237352886164639010e+00 -6.568857468493067842e+00 -6.416753576692876271e-01 -2.531600730346580397e-01 -2.154247632967674075e+00 3.293099779651225134e-01 -9.007088587610182634e-03 -6.235645070152780883e-02 -8.130414401182168849e-01 7.851603974589210777e-01 -6.703483001016433684e-01 -7.131031745374077913e-01 9.161488474531616077e-01 1.433459431087160896e+00 1.806302813524679474e-02 4.528756531385048079e-01 9.919315988524800287e-02 -6.039202504370705382e-01 -7.617535885174145927e-01 2.070421956665477459e-01 -6.039675587352013458e-02 -3.727765337553772262e-01 2.205574565336497483e-01 8.146442658277154303e-01 9.188155956499729493e-01 -4.419212110180514505e-03 2.536748078871470247e-01 2.007825879149504472e-02 -5.963416667647595225e-03 4.415252611315214487e-02 -9.673775636813002066e-02 -4.127042231571908526e-01 -2.432356148398145956e-01 -6.016257979777237530e-01 -4.324965752773733407e-01 3.552215556044053257e-01 -1.004560343350260343e+00 -9.747185774216933218e-01 -8.048020829339693760e-01 5.985461306135312354e-01 6.628612477018029914e-01 1.667617509112800933e-02 4.278896726365649106e-01 -5.039279916899165324e-01 2.090255446436208586e-01 5.464982609188440837e-02 4.398854115365290474e-01 -7.357592213564027039e-01 -2.600202904842645046e-01 -2.259881406266933124e-01 6.002661986270934058e-01 7.372319492460416290e-01 2.861972059695855886e-01 -2.303914118972862773e-02 -1.651836077921104429e-01 -1.214468290598148092e+00 -6.427336237296497057e-01 -1.080794066243717516e-01 -8.733986010030839187e-02 -1.309538943677797107e+00 -1.815641060199205681e-01 6.407132508670828619e-01 2.474619942130487082e-01 8.603944754440479015e-01 1.319368785276378686e+00 -3.206854695276140643e-01 -4.420595363680211443e-01 3.499430808183914832e-01 -1.000559192613779791e+00 -4.779336245289046992e-01 1.148948868790066885e-01 -2.225161229203937163e-01 -8.916791444656063659e-02 9.100260223896383671e-01 6.964264852256478733e-01 -2.414615536599074019e-01 9.814929200257794736e-03 2.729450717998048948e+00 8.639544248783950220e-01 7.266856440410935924e+00 -9.129534804468012466e-01 -1.897366145220265865e-01 4.194780515406453247e-01 3.181673310934095000e-01 3.373816478013213604e+00 -2.237434133024471805e+00 2.620848863211710511e-01 -1.106208392531994322e+00 1.118509578487281830e+00 4.344213031024146687e-01 -3.044551237243062758e-01 8.860031771311667192e-01 -4.991755646102924993e-01 1.845086876241242901e+00 -3.626953925340069773e+00 -1.553596797307951416e+00 4.379396006655814078e-01 -1.366414316664359418e+00 3.715403473563925751e-01 3.813187668917885076e-01 -1.469132458980988432e+00 -1.339375053179413799e-01 5.701889196491357614e-01 -4.566834569174070824e-01 -1.442280886026670483e+00 -1.927257790550122862e-01 -6.415683997778612868e-01 1.487374435896121172e+00 3.831123684557062870e-01 1.228191296600520399e+00 -1.945373783410450919e-01 6.933061944315385139e-01 7.364719311521569223e-01 1.577439151124640837e+00 4.281128443907909475e-01 2.184434955160849123e-01 -4.231187336141941646e-01 -7.016802774213325433e-01 1.453201389585421444e+00 -1.651048806133730951e+00 4.465337700858104109e-01 9.058166122972554080e-01 4.513448183174660344e-01 7.001376155257611478e-01 -2.108026911473192266e-01 -7.198245524164128550e-01 4.433106351653295918e-01 -2.690231624626934437e+00 1.280245336942789747e+00 -3.250743426205150444e-01 -1.550360806871674324e+00 1.586339796041456862e-01 -4.326086753751181430e-02 -1.628233350918860123e-01 8.887331744656966626e-01 4.207877714899855293e-01 -1.526906175411404942e-01 1.483516238495297124e-01 -1.156830842635173662e+00 9.710958930702593417e-01