1.237599999999999945e+01 0.000000000000000000e+00 0.000000000000000000e+00 0.000000000000000000e+00 1.214799999999999969e+01 0.000000000000000000e+00 0.000000000000000000e+00 0.000000000000000000e+00 1.185999999999999943e+01
1.196499999999999986e+01 0.000000000000000000e+00 0.000000000000000000e+00 0.000000000000000000e+00 1.230199999999999960e+01 0.000000000000000000e+00 0.000000000000000000e+00 0.000000000000000000e+00 1.192600000000000016e+01
1.196499999999999986e+01 0.000000000000000000e+00 0.000000000000000000e+00 0.000000000000000000e+00 1.230199999999999960e+01 0.000000000000000000e+00 0.000000000000000000e+00 0.000000000000000000e+00 1.192600000000000016e+01
1.196499999999999986e+01 0.000000000000000000e+00 0.000000000000000000e+00 0.000000000000000000e+00 1.230199999999999960e+01 0.000000000000000000e+00 0.000000000000000000e+00 0.000000000000000000e+00 1.192600000000000016e+01
1.237599999999999945e+01 0.000000000000000000e+00 0.000000000000000000e+00 0.000000000000000000e+00 1.214799999999999969e+01 0.000000000000000000e+00 0.000000000000000000e+00 0.000000000000000000e+00 1.185999999999999943e+01
1.196499999999999986e+01 0.000000000000000000e+00 0.000000000000000000e+00 0.000000000000000000e+00 1.230199999999999960e+01 0.000000000000000000e+00 0.000000000000000000e+00 0.000000000000000000e+00 1.192600000000000016e+01
1.196499999999999986e+01 0.000000000000000000e+00 0.000000000000000000e+00 0.000000000000000000e+00 1.230199999999999960e+01 0.000000000000000000e+00 0.000000000000000000e+00 0.000000000000000000e+00 1.192600000000000016e+01
1.223499999999999943e+01 0.000000000000000000e+00 0.000000000000000000e+00 0.000000000000000000e+00 1.187400000000000055e+01 0.000000000000000000e+00 0.000000000000000000e+00 0.000000000000000000e+00 1.181799999999999962e+01
