1.664679999999999938e+00 1.766280000000000072e+00 1.831309999999999993e+00 4.396230000000000082e+00 4.780240000000000045e+00 1.712029999999999941e+00 1.303879999999999928e+00 4.641490000000000116e+00 4.583739999999999704e+00 4.430299999999999905e+00 1.843609999999999971e+00 4.477479999999999905e+00 7.561749999999999972e+00 1.499339999999999895e+00 1.701200000000000045e+00 1.069609999999999950e+01 4.743210000000000370e+00 1.836340000000000083e+00 7.690750000000000419e+00 4.788899999999999935e+00 4.523550000000000182e+00 1.104739999999999966e+01 1.675159999999999982e+00 4.740179999999999616e+00 1.566149999999999931e+00 7.821570000000000356e+00 1.573769999999999891e+00 4.382390000000000008e+00 1.060449999999999982e+01 1.941829999999999945e+00 1.346090000000000009e+00 1.100820000000000043e+01 4.891519999999999868e+00 4.381870000000000154e+00 7.698489999999999611e+00 4.722100000000000186e+00 7.850769999999999804e+00 7.663030000000000008e+00 1.734690000000000065e+00 1.073719999999999963e+01 1.067340000000000089e+01 1.825979999999999936e+00 7.438189999999999635e+00 1.113669999999999938e+01 4.677130000000000010e+00 1.108649999999999913e+01 7.954439999999999955e+00 4.629080000000000084e+00 1.472669999999999924e+00 1.821630000000000082e+00 7.738430000000000142e+00 4.431519999999999904e+00 4.423370000000000246e+00 7.793120000000000047e+00 1.434209999999999985e+00 4.208219999999999850e+00 1.076239999999999952e+01 4.235850000000000115e+00 1.650539999999999896e+00 1.062020000000000053e+01 7.257640000000000313e+00 1.647070000000000034e+00 7.698500000000000121e+00 1.070659999999999989e+01 4.495949999999999669e+00 7.783870000000000289e+00 7.375189999999999912e+00 4.427940000000000431e+00 1.084350000000000058e+01 1.057850000000000001e+01 1.636889999999999956e+00 1.061839999999999939e+01 1.604840000000000044e+00 7.528410000000000046e+00 7.721829999999999750e+00 4.670939999999999870e+00 1.049189999999999934e+01 7.873759999999999870e+00 1.338330000000000020e+00 1.039729999999999954e+01 1.081709999999999994e+01 4.501920000000000144e+00 7.368900000000000006e+00 1.087170000000000059e+01 7.929549999999999876e+00 7.778380000000000294e+00 7.559459999999999624e+00 1.114710000000000001e+01 1.064949999999999974e+01 7.928989999999999760e+00 7.638720000000000176e+00 1.036749999999999972e+01 1.072540000000000049e+01 1.093999999999999950e+01 7.576559999999999739e+00 1.068839999999999968e+01 4.334190000000000431e+00 1.477840000000000042e+00 1.577050000000000063e+00 1.354530000000000012e+00 4.670989999999999753e+00 1.633510000000000018e+00 4.578179999999999694e+00 4.592240000000000322e+00 4.617609999999999992e+00 1.427650000000000086e+00 1.506780000000000008e+00 4.670350000000000001e+00 1.029299999999999926e+01 1.421410000000000062e+00 1.582179999999999920e+00 7.514800000000000146e+00 4.394300000000000317e+00 1.591579999999999995e+00 1.059740000000000038e+01 4.359130000000000393e+00 4.650299999999999656e+00 7.667270000000000252e+00 1.640589999999999993e+00 4.486119999999999663e+00 4.506499999999999950e+00 7.436860000000000248e+00 1.717770000000000019e+00 1.604680000000000106e+00 1.059440000000000026e+01 1.569420000000000037e+00 4.368669999999999831e+00 1.055199999999999960e+01 4.774449999999999861e+00 1.499810000000000088e+00 7.463049999999999962e+00 4.690610000000000390e+00 1.072220000000000084e+01 7.611570000000000391e+00 1.607299999999999951e+00 7.540119999999999933e+00 1.049760000000000026e+01 1.505849999999999911e+00 1.066970000000000063e+01 1.066649999999999920e+01 4.797189999999999621e+00 7.853259999999999685e+00 7.489250000000000185e+00 4.580470000000000041e+00 4.386400000000000077e+00 1.492140000000000022e+00 7.568270000000000053e+00 1.521279999999999966e+00 4.629850000000000243e+00 7.526080000000000325e+00 4.444469999999999921e+00 4.356110000000000149e+00 1.042699999999999960e+01 1.166870000000000074e+00 1.320459999999999967e+00 1.068420000000000059e+01 1.104429999999999978e+01 1.536489999999999911e+00 7.521419999999999995e+00 7.805240000000000400e+00 4.503949999999999676e+00 7.493459999999999788e+00 1.087679999999999936e+01 4.555200000000000138e+00 1.036969999999999992e+01 7.422719999999999985e+00 1.426749999999999963e+00 1.048649999999999949e+01 4.629249999999999865e+00 7.610339999999999883e+00 7.599829999999999863e+00 1.521970000000000045e+00 1.051859999999999928e+01 7.521279999999999966e+00 4.356810000000000294e+00 1.069829999999999970e+01 1.045599999999999952e+01 1.296999999999999931e+00 7.465749999999999886e+00 1.061609999999999943e+01 1.064189999999999969e+01 7.622239999999999682e+00 7.592939999999999579e+00 7.609740000000000393e+00 1.061250000000000071e+01 7.374929999999999986e+00 1.078139999999999965e+01 1.045049999999999990e+01 1.054840000000000089e+01 7.717530000000000001e+00 7.239950000000000330e+00 1.077689999999999948e+01
1.374179999999999957e+00 1.514760000000000106e+00 1.751730000000000009e+00 4.393939999999999735e+00 4.370459999999999567e+00 1.747149999999999981e+00 1.603150000000000075e+00 4.583149999999999835e+00 4.695000000000000284e+00 4.471230000000000260e+00 1.289870000000000072e+00 4.548099999999999810e+00 7.309689999999999799e+00 1.572570000000000023e+00 1.886759999999999993e+00 1.068900000000000006e+01 4.432129999999999903e+00 1.752459999999999907e+00 7.387170000000000236e+00 4.340539999999999843e+00 4.713189999999999991e+00 1.039920000000000044e+01 1.446490000000000054e+00 4.600559999999999761e+00 1.672409999999999952e+00 7.732420000000000293e+00 1.670449999999999990e+00 4.554269999999999818e+00 1.057280000000000086e+01 1.578219999999999956e+00 1.562400000000000011e+00 1.104560000000000031e+01 4.707760000000000389e+00 4.616369999999999862e+00 7.597570000000000157e+00 4.444799999999999862e+00 7.611659999999999648e+00 7.703640000000000043e+00 1.958949999999999969e+00 1.069159999999999933e+01 1.043640000000000079e+01 1.606440000000000090e+00 7.465609999999999857e+00 1.058530000000000015e+01 4.811009999999999565e+00 1.053790000000000049e+01 7.551199999999999690e+00 4.642310000000000159e+00 1.474869999999999903e+00 1.269700000000000051e+00 7.491469999999999629e+00 4.595390000000000086e+00 4.372239999999999682e+00 7.625160000000000160e+00 1.656279999999999974e+00 4.398060000000000080e+00 1.046610000000000085e+01 4.501559999999999562e+00 1.122179999999999955e+00 1.073160000000000025e+01 7.676459999999999617e+00 1.448590000000000044e+00 7.642280000000000406e+00 1.047749999999999915e+01 4.377889999999999837e+00 7.415600000000000414e+00 7.554940000000000211e+00 4.343079999999999607e+00 1.052200000000000024e+01 1.048189999999999955e+01 1.156649999999999956e+00 1.038039999999999985e+01 1.438290000000000068e+00 7.401510000000000034e+00 7.722649999999999793e+00 4.480249999999999844e+00 1.041089999999999982e+01 7.448120000000000296e+00 1.565430000000000099e+00 1.032879999999999932e+01 1.041169999999999973e+01 4.659119999999999706e+00 7.648670000000000080e+00 1.064419999999999966e+01 7.518360000000000376e+00 7.602820000000000356e+00 7.831579999999999764e+00 1.059459999999999980e+01 1.033430000000000071e+01 7.509369999999999656e+00 7.531060000000000088e+00 1.074810000000000088e+01 1.065579999999999927e+01 1.062819999999999965e+01 7.509699999999999598e+00 1.049530000000000030e+01 4.446570000000000356e+00 1.424290000000000056e+00 1.765370000000000106e+00 1.386570000000000080e+00 4.506540000000000212e+00 1.660630000000000051e+00 4.620289999999999786e+00 4.573710000000000164e+00 4.736019999999999897e+00 1.494119999999999893e+00 1.590589999999999948e+00 4.595749999999999780e+00 1.055410000000000004e+01 1.494990000000000041e+00 1.714790000000000036e+00 7.366780000000000328e+00 4.697009999999999685e+00 1.661869999999999958e+00 1.060800000000000054e+01 4.686989999999999768e+00 4.608900000000000219e+00 7.532600000000000406e+00 1.447140000000000093e+00 4.633399999999999963e+00 4.570800000000000196e+00 7.653369999999999784e+00 1.544249999999999901e+00 1.550999999999999934e+00 1.085490000000000066e+01 1.669640000000000013e+00 4.518030000000000435e+00 1.074540000000000006e+01 4.573949999999999960e+00 1.548499999999999988e+00 7.435410000000000075e+00 4.730699999999999683e+00 1.069200000000000017e+01 7.519700000000000273e+00 1.773770000000000069e+00 7.477219999999999978e+00 1.079320000000000057e+01 1.707109999999999905e+00 1.059720000000000084e+01 1.077699999999999925e+01 4.700160000000000338e+00 7.575650000000000439e+00 7.571430000000000327e+00 4.736769999999999925e+00 4.695960000000000356e+00 1.477810000000000068e+00 7.742910000000000181e+00 1.641699999999999937e+00 4.481510000000000105e+00 7.657149999999999679e+00 4.664670000000000094e+00 4.599910000000000387e+00 1.061320000000000086e+01 1.489230000000000054e+00 1.435349999999999904e+00 1.060590000000000011e+01 1.057319999999999993e+01 1.568940000000000001e+00 7.553279999999999994e+00 7.690649999999999764e+00 4.588219999999999743e+00 7.688719999999999999e+00 1.044560000000000066e+01 4.468140000000000001e+00 1.046560000000000024e+01 7.541039999999999743e+00 1.527490000000000014e+00 1.053979999999999961e+01 4.554450000000000109e+00 7.572779999999999845e+00 7.621109999999999829e+00 1.602370000000000072e+00 1.075530000000000008e+01 7.660429999999999851e+00 4.534539999999999793e+00 1.058919999999999995e+01 1.065440000000000076e+01 1.668350000000000000e+00 7.489010000000000389e+00 1.065119999999999933e+01 1.060500000000000043e+01 7.593969999999999665e+00 7.655479999999999841e+00 7.573970000000000091e+00 1.083830000000000027e+01 7.624249999999999972e+00 1.065210000000000079e+01 1.069790000000000063e+01 1.069250000000000078e+01 7.541039999999999743e+00 7.766519999999999868e+00 1.043890000000000029e+01
1.347429999999999906e+00 1.508699999999999930e+00 1.731959999999999944e+00 4.330479999999999663e+00 4.317479999999999762e+00 1.657499999999999973e+00 1.563229999999999897e+00 4.524549999999999628e+00 4.672439999999999927e+00 4.511459999999999582e+00 1.312829999999999941e+00 4.509870000000000267e+00 7.335740000000000371e+00 1.551509999999999945e+00 1.868130000000000068e+00 1.060260000000000069e+01 4.372840000000000060e+00 1.683140000000000081e+00 7.379719999999999835e+00 4.337620000000000253e+00 4.700599999999999667e+00 1.036420000000000030e+01 1.462439999999999962e+00 4.546999999999999709e+00 1.627999999999999892e+00 7.685959999999999681e+00 1.587730000000000086e+00 4.510290000000000354e+00 1.051529999999999987e+01 1.509339999999999904e+00 1.533409999999999940e+00 1.087809999999999988e+01 4.654029999999999667e+00 4.610899999999999999e+00 7.586490000000000400e+00 4.405059999999999754e+00 7.625609999999999999e+00 7.714129999999999932e+00 1.902919999999999945e+00 1.059529999999999994e+01 1.041060000000000052e+01 1.549080000000000013e+00 7.404569999999999652e+00 1.050140000000000029e+01 4.748479999999999812e+00 1.050189999999999912e+01 7.526119999999999699e+00 4.623840000000000394e+00 1.443459999999999965e+00 1.306720000000000104e+00 7.503739999999999633e+00 4.555970000000000297e+00 4.396300000000000097e+00 7.608039999999999914e+00 1.590840000000000032e+00 4.422380000000000422e+00 1.041300000000000026e+01 4.480269999999999975e+00 1.163929999999999909e+00 1.070770000000000088e+01 7.671710000000000029e+00 1.431459999999999955e+00 7.594859999999999722e+00 1.046410000000000018e+01 4.351140000000000008e+00 7.401019999999999932e+00 7.557940000000000325e+00 4.358909999999999840e+00 1.052899999999999991e+01 1.048850000000000016e+01 1.191610000000000058e+00 1.041590000000000060e+01 1.393159999999999954e+00 7.369449999999999612e+00 7.698059999999999903e+00 4.459959999999999702e+00 1.041929999999999978e+01 7.446710000000000385e+00 1.536990000000000078e+00 1.034249999999999936e+01 1.043490000000000073e+01 4.569259999999999877e+00 7.621940000000000381e+00 1.062829999999999941e+01 7.467579999999999885e+00 7.536539999999999573e+00 7.717929999999999957e+00 1.055030000000000001e+01 1.032189999999999941e+01 7.491209999999999702e+00 7.525120000000000253e+00 1.071620000000000061e+01 1.063129999999999953e+01 1.058440000000000047e+01 7.488789999999999836e+00 1.047220000000000084e+01 4.456559999999999633e+00 1.465430000000000010e+00 1.760750000000000037e+00 1.421810000000000018e+00 4.542559999999999931e+00 1.675319999999999920e+00 4.618079999999999963e+00 4.567029999999999923e+00 4.724310000000000009e+00 1.518369999999999997e+00 1.627410000000000023e+00 4.632039999999999935e+00 1.055090000000000039e+01 1.536669999999999980e+00 1.732050000000000090e+00 7.458859999999999602e+00 4.705910000000000259e+00 1.663270000000000026e+00 1.061149999999999949e+01 4.695879999999999832e+00 4.623109999999999609e+00 7.530800000000000161e+00 1.472099999999999964e+00 4.605439999999999756e+00 4.571310000000000429e+00 7.655840000000000423e+00 1.555919999999999970e+00 1.576750000000000096e+00 1.085309999999999953e+01 1.685799999999999965e+00 4.530490000000000350e+00 1.071819999999999951e+01 4.585810000000000386e+00 1.557620000000000005e+00 7.519630000000000258e+00 4.774390000000000356e+00 1.066920000000000002e+01 7.496249999999999858e+00 1.777130000000000098e+00 7.564049999999999940e+00 1.082460000000000022e+01 1.707019999999999982e+00 1.061899999999999977e+01 1.073440000000000083e+01 4.723080000000000389e+00 7.607639999999999958e+00 7.590200000000000280e+00 4.751479999999999926e+00 4.727719999999999700e+00 1.519150000000000000e+00 7.789139999999999731e+00 1.640430000000000055e+00 4.502510000000000012e+00 7.660809999999999675e+00 4.677970000000000184e+00 4.626669999999999838e+00 1.067130000000000045e+01 1.494289999999999896e+00 1.464639999999999942e+00 1.060299999999999976e+01 1.053180000000000049e+01 1.604689999999999950e+00 7.550489999999999924e+00 7.696349999999999802e+00 4.587690000000000268e+00 7.701030000000000264e+00 1.051999999999999957e+01 4.515430000000000277e+00 1.056939999999999991e+01 7.598869999999999791e+00 1.550910000000000011e+00 1.061749999999999972e+01 4.560950000000000060e+00 7.553530000000000300e+00 7.621240000000000236e+00 1.594019999999999992e+00 1.068520000000000003e+01 7.627609999999999779e+00 4.532370000000000232e+00 1.053669999999999973e+01 1.067409999999999926e+01 1.678970000000000073e+00 7.495700000000000252e+00 1.066619999999999990e+01 1.057590000000000074e+01 7.574840000000000018e+00 7.620580000000000354e+00 7.654530000000000278e+00 1.088990000000000080e+01 7.707449999999999690e+00 1.060929999999999929e+01 1.064039999999999964e+01 1.066980000000000040e+01 7.620210000000000150e+00 7.811939999999999884e+00 1.055649999999999977e+01
1.366970000000000018e+00 1.513770000000000060e+00 1.749870000000000037e+00 4.376649999999999707e+00 4.357680000000000220e+00 1.726930000000000076e+00 1.594270000000000076e+00 4.568529999999999980e+00 4.690780000000000172e+00 4.481810000000000294e+00 1.295009999999999994e+00 4.535849999999999937e+00 7.314639999999999809e+00 1.568279999999999896e+00 1.886130000000000084e+00 1.067270000000000074e+01 4.418350000000000222e+00 1.738429999999999920e+00 7.383689999999999642e+00 4.338799999999999990e+00 4.711780000000000079e+00 1.038959999999999972e+01 1.451829999999999954e+00 4.588379999999999903e+00 1.662660000000000027e+00 7.721790000000000376e+00 1.649329999999999963e+00 4.543210000000000193e+00 1.055930000000000035e+01 1.560570000000000013e+00 1.556859999999999911e+00 1.100699999999999967e+01 4.697289999999999743e+00 4.616929999999999978e+00 7.596189999999999998e+00 4.432579999999999742e+00 7.614609999999999879e+00 7.707510000000000083e+00 1.947840000000000016e+00 1.066910000000000025e+01 1.043019999999999925e+01 1.591250000000000053e+00 7.449819999999999887e+00 1.056569999999999965e+01 4.797119999999999607e+00 1.052800000000000047e+01 7.545010000000000439e+00 4.638410000000000366e+00 1.465670000000000028e+00 1.277749999999999941e+00 7.492219999999999658e+00 4.585849999999999760e+00 4.379489999999999661e+00 7.619559999999999889e+00 1.641440000000000010e+00 4.406109999999999971e+00 1.045110000000000028e+01 4.497230000000000061e+00 1.131050000000000111e+00 1.072879999999999967e+01 7.678849999999999731e+00 1.445440000000000058e+00 7.629789999999999850e+00 1.047310000000000052e+01 4.370709999999999873e+00 7.409049999999999692e+00 7.554999999999999716e+00 4.346440000000000303e+00 1.052069999999999972e+01 1.048230000000000040e+01 1.162819999999999965e+00 1.038690000000000069e+01 1.424469999999999903e+00 7.394219999999999793e+00 7.718969999999999665e+00 4.474420000000000286e+00 1.041259999999999941e+01 7.446570000000000356e+00 1.558329999999999993e+00 1.033079999999999998e+01 1.041510000000000069e+01 4.636759999999999771e+00 7.645470000000000432e+00 1.064300000000000068e+01 7.507450000000000401e+00 7.587620000000000253e+00 7.806580000000000297e+00 1.058500000000000085e+01 1.032850000000000001e+01 7.504459999999999908e+00 7.529160000000000075e+00 1.074249999999999972e+01 1.064939999999999998e+01 1.061890000000000001e+01 7.507150000000000212e+00 1.048799999999999955e+01 4.448550000000000004e+00 1.433419999999999916e+00 1.764960000000000084e+00 1.392530000000000046e+00 4.514470000000000205e+00 1.663910000000000000e+00 4.620639999999999858e+00 4.571780000000000399e+00 4.733880000000000088e+00 1.499160000000000048e+00 1.600279999999999925e+00 4.603489999999999860e+00 1.055480000000000018e+01 1.505039999999999933e+00 1.719589999999999952e+00 7.388440000000000119e+00 4.699550000000000338e+00 1.661610000000000031e+00 1.060929999999999929e+01 4.690179999999999794e+00 4.612370000000000303e+00 7.532440000000000246e+00 1.452679999999999971e+00 4.625339999999999563e+00 4.570470000000000255e+00 7.653819999999999624e+00 1.545709999999999917e+00 1.557290000000000063e+00 1.085549999999999926e+01 1.672889999999999988e+00 4.520640000000000214e+00 1.073930000000000007e+01 4.576069999999999638e+00 1.549670000000000103e+00 7.454589999999999606e+00 4.741509999999999891e+00 1.068790000000000084e+01 7.512529999999999930e+00 1.775660000000000016e+00 7.497840000000000060e+00 1.080049999999999955e+01 1.707200000000000051e+00 1.060299999999999976e+01 1.076640000000000086e+01 4.706159999999999677e+00 7.583630000000000315e+00 7.574849999999999639e+00 4.740800000000000125e+00 4.704360000000000319e+00 1.487610000000000099e+00 7.754489999999999661e+00 1.641319999999999890e+00 4.485899999999999999e+00 7.658649999999999736e+00 4.669319999999999915e+00 4.606320000000000192e+00 1.062710000000000043e+01 1.489449999999999941e+00 1.441759999999999931e+00 1.060500000000000043e+01 1.056240000000000023e+01 1.578580000000000094e+00 7.552579999999999849e+00 7.693279999999999674e+00 4.587270000000000181e+00 7.693100000000000271e+00 1.046219999999999928e+01 4.478329999999999700e+00 1.048980000000000068e+01 7.555170000000000385e+00 1.533209999999999962e+00 1.055799999999999983e+01 4.555290000000000283e+00 7.567319999999999602e+00 7.621330000000000382e+00 1.600330000000000030e+00 1.073900000000000077e+01 7.652929999999999566e+00 4.533459999999999823e+00 1.057510000000000083e+01 1.066039999999999921e+01 1.671680000000000055e+00 7.489930000000000199e+00 1.065470000000000006e+01 1.059880000000000067e+01 7.589859999999999829e+00 7.646989999999999732e+00 7.593300000000000161e+00 1.085139999999999993e+01 7.644409999999999705e+00 1.064279999999999937e+01 1.068469999999999942e+01 1.068800000000000061e+01 7.559599999999999653e+00 7.777420000000000222e+00 1.046470000000000056e+01
1.663070000000000048e+00 1.765689999999999982e+00 1.830039999999999889e+00 4.379739999999999966e+00 4.787359999999999616e+00 1.738709999999999978e+00 1.315239999999999965e+00 4.645470000000000432e+00 4.593189999999999884e+00 4.422600000000000087e+00 1.840319999999999956e+00 4.507649999999999935e+00 7.571649999999999991e+00 1.499800000000000022e+00 1.706199999999999939e+00 1.068520000000000003e+01 4.732109999999999594e+00 1.853949999999999987e+00 7.694639999999999702e+00 4.773559999999999803e+00 4.527980000000000338e+00 1.104320000000000057e+01 1.682420000000000027e+00 4.739700000000000024e+00 1.555490000000000039e+00 7.821629999999999860e+00 1.592449999999999921e+00 4.396180000000000199e+00 1.061270000000000024e+01 1.945359999999999978e+00 1.339550000000000018e+00 1.100500000000000078e+01 4.887109999999999843e+00 4.379690000000000083e+00 7.687310000000000088e+00 4.739779999999999660e+00 7.850679999999999659e+00 7.685290000000000177e+00 1.761269999999999891e+00 1.077839999999999954e+01 1.070439999999999969e+01 1.840689999999999937e+00 7.441510000000000069e+00 1.110430000000000028e+01 4.666500000000000092e+00 1.107670000000000066e+01 7.960519999999999818e+00 4.655260000000000176e+00 1.466199999999999948e+00 1.813150000000000039e+00 7.741850000000000342e+00 4.440760000000000041e+00 4.413319999999999688e+00 7.817960000000000242e+00 1.407380000000000075e+00 4.192590000000000039e+00 1.078930000000000078e+01 4.238010000000000055e+00 1.651829999999999909e+00 1.062839999999999918e+01 7.269169999999999909e+00 1.636509999999999909e+00 7.702399999999999913e+00 1.071470000000000056e+01 4.517809999999999881e+00 7.766549999999999621e+00 7.353889999999999816e+00 4.414410000000000167e+00 1.085069999999999979e+01 1.058530000000000015e+01 1.618549999999999933e+00 1.064380000000000059e+01 1.605869999999999909e+00 7.519999999999999574e+00 7.733710000000000306e+00 4.651720000000000077e+00 1.049230000000000018e+01 7.885349999999999859e+00 1.344870000000000010e+00 1.038499999999999979e+01 1.082879999999999932e+01 4.499780000000000335e+00 7.355439999999999756e+00 1.084639999999999915e+01 7.932050000000000267e+00 7.785330000000000084e+00 7.564049999999999940e+00 1.116910000000000025e+01 1.067130000000000045e+01 7.941849999999999632e+00 7.636260000000000048e+00 1.037739999999999974e+01 1.074939999999999962e+01 1.092900000000000027e+01 7.559459999999999624e+00 1.071770000000000067e+01 4.325969999999999871e+00 1.471780000000000088e+00 1.576840000000000019e+00 1.356640000000000068e+00 4.650619999999999976e+00 1.626949999999999896e+00 4.574930000000000163e+00 4.591039999999999566e+00 4.611740000000000173e+00 1.419529999999999959e+00 1.511919999999999931e+00 4.667440000000000033e+00 1.030669999999999931e+01 1.414130000000000109e+00 1.562019999999999964e+00 7.520080000000000098e+00 4.416820000000000412e+00 1.587779999999999969e+00 1.060899999999999999e+01 4.366340000000000110e+00 4.629109999999999836e+00 7.665219999999999700e+00 1.632880000000000109e+00 4.496480000000000032e+00 4.512089999999999712e+00 7.430349999999999788e+00 1.723740000000000050e+00 1.595329999999999915e+00 1.061009999999999920e+01 1.567339999999999955e+00 4.373969999999999914e+00 1.055940000000000012e+01 4.765310000000000379e+00 1.499859999999999971e+00 7.466789999999999594e+00 4.690380000000000216e+00 1.073370000000000068e+01 7.594490000000000407e+00 1.603150000000000075e+00 7.514380000000000059e+00 1.049039999999999928e+01 1.503900000000000015e+00 1.068880000000000052e+01 1.067539999999999978e+01 4.780000000000000249e+00 7.845539999999999736e+00 7.494060000000000166e+00 4.579060000000000130e+00 4.397890000000000299e+00 1.486979999999999968e+00 7.562660000000000160e+00 1.528289999999999926e+00 4.617939999999999934e+00 7.515530000000000044e+00 4.451529999999999987e+00 4.365870000000000140e+00 1.042120000000000068e+01 1.163329999999999975e+00 1.324279999999999902e+00 1.066680000000000028e+01 1.104110000000000014e+01 1.526829999999999909e+00 7.517170000000000130e+00 7.804689999999999905e+00 4.512480000000000047e+00 7.484650000000000247e+00 1.087570000000000014e+01 4.554280000000000328e+00 1.037119999999999997e+01 7.425239999999999618e+00 1.432430000000000092e+00 1.048070000000000057e+01 4.632089999999999819e+00 7.614239999999999675e+00 7.578839999999999577e+00 1.497970000000000024e+00 1.053749999999999964e+01 7.522820000000000285e+00 4.358109999999999928e+00 1.070449999999999946e+01 1.043769999999999953e+01 1.308999999999999941e+00 7.467349999999999710e+00 1.061020000000000074e+01 1.064659999999999940e+01 7.592730000000000423e+00 7.588739999999999597e+00 7.591409999999999769e+00 1.061059999999999981e+01 7.381470000000000198e+00 1.078780000000000072e+01 1.046570000000000000e+01 1.053880000000000017e+01 7.706710000000000171e+00 7.255620000000000402e+00 1.076740000000000030e+01
1.353429999999999911e+00 1.510820000000000052e+00 1.739940000000000042e+00 4.344979999999999620e+00 4.331129999999999924e+00 1.682080000000000020e+00 1.574330000000000007e+00 4.539150000000000240e+00 4.679669999999999774e+00 4.502089999999999925e+00 1.306559999999999944e+00 4.516659999999999897e+00 7.327729999999999855e+00 1.557809999999999917e+00 1.877070000000000016e+00 1.062940000000000040e+01 4.388550000000000395e+00 1.703859999999999930e+00 7.379990000000000272e+00 4.337349999999999817e+00 4.705610000000000070e+00 1.037199999999999989e+01 1.459880000000000067e+00 4.561420000000000030e+00 1.640540000000000109e+00 7.698699999999999655e+00 1.607900000000000107e+00 4.521300000000000097e+00 1.053059999999999974e+01 1.526000000000000023e+00 1.542399999999999993e+00 1.092329999999999934e+01 4.670410000000000394e+00 4.614379999999999704e+00 7.590690000000000381e+00 4.412749999999999950e+00 7.621649999999999814e+00 7.712860000000000049e+00 1.919990000000000085e+00 1.062100000000000044e+01 1.041729999999999912e+01 1.562540000000000040e+00 7.419299999999999784e+00 1.052369999999999983e+01 4.765839999999999854e+00 1.050990000000000002e+01 7.532390000000000363e+00 4.629209999999999603e+00 1.449989999999999890e+00 1.296510000000000051e+00 7.498470000000000191e+00 4.566119999999999735e+00 4.391519999999999868e+00 7.611110000000000042e+00 1.608789999999999942e+00 4.418330000000000091e+00 1.042430000000000057e+01 4.486550000000000260e+00 1.152039999999999953e+00 1.071700000000000053e+01 7.676549999999999763e+00 1.436839999999999895e+00 7.605970000000000120e+00 1.046640000000000015e+01 4.357149999999999856e+00 7.401819999999999844e+00 7.556569999999999787e+00 4.354359999999999786e+00 1.052420000000000044e+01 1.048569999999999958e+01 1.180460000000000065e+00 1.040470000000000006e+01 1.401929999999999898e+00 7.378040000000000376e+00 7.706830000000000069e+00 4.464349999999999596e+00 1.041690000000000005e+01 7.445909999999999584e+00 1.544189999999999952e+00 1.033760000000000012e+01 1.042689999999999984e+01 4.591649999999999565e+00 7.632179999999999964e+00 1.063519999999999932e+01 7.482070000000000221e+00 7.554499999999999993e+00 7.749039999999999928e+00 1.056279999999999930e+01 1.032230000000000025e+01 7.495370000000000310e+00 7.526259999999999728e+00 1.072659999999999947e+01 1.063719999999999999e+01 1.059720000000000084e+01 7.496629999999999683e+00 1.047649999999999970e+01 4.453490000000000393e+00 1.454029999999999934e+00 1.762659999999999894e+00 1.410239999999999938e+00 4.532420000000000115e+00 1.671189999999999953e+00 4.619500000000000384e+00 4.568430000000000213e+00 4.727990000000000137e+00 1.511290000000000022e+00 1.618780000000000108e+00 4.621660000000000323e+00 1.055320000000000036e+01 1.525970000000000049e+00 1.728290000000000104e+00 7.434409999999999741e+00 4.703929999999999723e+00 1.662230000000000096e+00 1.061110000000000042e+01 4.694679999999999964e+00 4.619469999999999743e+00 7.531530000000000058e+00 1.465170000000000083e+00 4.611229999999999940e+00 4.570680000000000298e+00 7.655059999999999754e+00 1.551509999999999945e+00 1.570189999999999975e+00 1.085449999999999982e+01 1.680979999999999919e+00 4.526799999999999713e+00 1.072560000000000002e+01 4.581979999999999720e+00 1.554200000000000026e+00 7.496649999999999814e+00 4.763349999999999973e+00 1.067639999999999922e+01 7.500740000000000407e+00 1.777349999999999985e+00 7.541240000000000165e+00 1.081620000000000026e+01 1.707000000000000073e+00 1.061389999999999922e+01 1.074499999999999922e+01 4.717699999999999783e+00 7.599669999999999703e+00 7.584229999999999805e+00 4.748129999999999740e+00 4.720279999999999809e+00 1.508310000000000040e+00 7.777610000000000134e+00 1.640700000000000047e+00 4.496459999999999901e+00 7.660490000000000244e+00 4.675889999999999880e+00 4.619729999999999670e+00 1.065610000000000035e+01 1.491929999999999978e+00 1.456409999999999982e+00 1.060350000000000037e+01 1.054160000000000075e+01 1.596559999999999979e+00 7.551129999999999676e+00 7.696150000000000269e+00 4.586969999999999992e+00 7.699209999999999887e+00 1.049939999999999962e+01 4.502010000000000289e+00 1.054170000000000051e+01 7.584120000000000417e+00 1.544869999999999965e+00 1.059689999999999976e+01 4.558539999999999814e+00 7.557660000000000267e+00 7.621310000000000251e+00 1.596109999999999918e+00 1.070379999999999932e+01 7.636389999999999567e+00 4.532339999999999591e+00 1.054870000000000019e+01 1.067040000000000077e+01 1.676970000000000072e+00 7.493240000000000123e+00 1.066230000000000011e+01 1.058419999999999916e+01 7.580309999999999881e+00 7.629459999999999908e+00 7.633610000000000007e+00 1.087729999999999997e+01 7.686099999999999710e+00 1.062129999999999974e+01 1.065579999999999927e+01 1.067660000000000053e+01 7.599230000000000373e+00 7.800169999999999604e+00 1.052389999999999937e+01