-1.052862863714342893e+04
-1.053058222669620227e+04
-1.053119520989133343e+04
-1.053072967917883398e+04
-1.052873898613957863e+04
-1.053103965877992232e+04
-1.053088296420096412e+04
-1.052728016892187406e+04
