-7.019810964909690698e-01 4.934461183301398594e-03 -2.918443769486410155e-01 1.304099517834012012e-01 -8.687474753879357303e-01 5.572742684800430224e-01 1.519470545074750323e-01 2.442532574702599713e-01 5.777520767024910686e-01 5.366879597042730765e-01 -1.972673756755748131e-01 6.078936332594307990e-01 -1.385084125145197576e-01 1.300355991634091768e-01 7.792396611037176457e-02 -9.954797212122944161e-02 -3.295084671290193779e-01 -5.574151649331717667e-02 -2.337122487378198443e-01 -1.668363129028993808e-01 8.863471907338792422e-01 -7.849295123952172437e-01 -3.568305519614863863e-01 -1.649866612901091378e-01 5.360698665047807648e-02 -3.129639325196468813e-01 6.711977925854715199e-01 4.997319513339619768e-01 2.652370587944554714e-01 3.081210026088160303e-03 -6.310618438277555697e-02 -1.175256910536511601e+00 -5.439996628686500912e-01 4.048628727420008899e-01 2.280337103002211263e-01 6.027771379724520262e-01 -6.477791565694321352e-02 1.246491380447053293e-01 6.162831428681806584e-02 -2.541982844903776240e-01 4.006745456955242424e-01 4.152408735341422963e-01 2.466407838639728123e-02 -9.220634131607827744e-01 -7.541354098564505282e-02 -7.115718254957370537e-01 -3.208700747344507831e-01 4.768141662133516534e-01 -2.485418575399487850e-01 -3.640280981455911724e-01 2.761416215136186514e-01 1.610276766454407926e-01 2.060533493914864511e-01 -1.095100712663247933e+00 -4.426853428769912946e-01 2.313987701150944376e-01 -5.132816649833983336e-01 1.713686535520884402e-01 -1.056182952582401580e+00 -2.387438976205422669e-01 2.601730140119261070e-01 8.909180979304577586e-02 -1.127984093629250117e-01 -1.151885068597971185e-01 1.930805912909937250e-01 -1.022225364716449647e+00 1.952032940593001475e-01 -1.317973190481518397e-01 -1.222962701215796644e+00 -2.488097664891463778e-01 1.369883763267499763e-02 1.749013492929472335e-01 3.087642926192692983e-01 5.651629271933638066e-01 -2.586889732683863019e-01 1.814221811255280203e-01 1.806868456219722432e-02 -8.458826549924067795e-01 3.651069330312275429e-01 1.752859863255764039e-01 -1.014142844824918788e+00 3.656962298753357876e-01 4.688720285543176991e-01 -7.680322224323906655e-01 -6.417463201164838038e-01 -2.193937752437569721e-01 7.820678745789320929e-02 -4.297089852320755687e-01 3.469960823772180042e-03 -9.960443354660737381e-01 -1.874596455641630022e-01 2.283715532553512728e-01 -7.342448415955833418e-01 -7.066090821776835895e-01 2.675027148984181896e-02 -4.048685291689513299e-01 5.425346482884889632e-01 -2.427177946635344086e-01 2.711120295134236691e-01 6.961364647892805124e-02 -4.432684690735173016e-01 1.311149482696773727e-01 -2.475473548379370503e-01 -3.592551022406929168e-02 -4.239893091439283501e-01 5.894979043753725279e-01 7.814657222190273256e-01 2.028548970613348185e-02 9.056201800158860671e-01 1.282826210294080865e-02 -6.173064419255763075e-02 2.133604245701768015e-02 1.730763802704861354e-02 7.303501345298972769e-01 6.171789152088758001e-01 8.562133474864174199e-01 -4.418800733675030123e-01 -4.018248572489887538e-01 7.835334033797249076e-02 3.578307110904486166e-01 6.780873206110939189e-02 9.174405696803868970e-01 6.844070921766183535e-02 -8.047845994324861474e-01 1.536336981799665269e-01 1.036602459362544248e+00 1.360057006992709261e-01 2.614883903882167515e-01 -6.815516250079155514e-01 5.727132287309225772e-02 2.094595468569082908e-01 -3.712667819802445979e-01 1.329399172921384986e-01 -2.194261711435639695e-01 4.510439992478295634e-01 2.440650527190002528e-01 -1.220590087220407710e-01 8.090212632183575447e-01 2.850839183016147787e-03 5.252403799978687393e-02 -7.649289009191325706e-01 -2.933093915288020881e-01 4.495486456503888784e-01 3.432181033949633919e-01 4.928305962338068724e-01 2.162040646643469469e-02 -3.335137316305548660e-01 -1.004679128316219305e-01 -3.252275803688084999e-01 6.497486215894450468e-02 1.037121307980088114e-01 9.211912949691530850e-01 1.104073348468523452e+00 3.461157366554785120e-01 3.177281866738034810e-01 -4.073789542936780417e-01 -5.346681010623380859e-01 -1.507386360226106725e-01 1.350934732983563036e-01 -4.080741805879489204e-01 -5.246953061281001141e-02 3.558920993083470197e-03 -2.615850638670058625e-01 -4.534896325729423361e-01 1.474809454756691673e+00 1.330926408198000455e-01 -3.142443418929711241e-01 -1.669592116339132515e-01 -4.333656081452119668e-01 -3.040946550613743971e-01 -5.332930750927520475e-02 1.542204239209155892e-01 1.088121710247682145e-01 6.902501812164114625e-01 3.237764497457075175e-01 -5.865647898912591529e-01 1.184921173091635138e+00 8.808167478382554760e-01 -1.228910177043856522e-01 -2.717244662859655269e-01 8.751423231657114998e-01 -1.573134610215364548e-01 -2.485696254540690486e-01 -5.605879062317305206e-02 2.244177108170015145e-01 5.170966678511466075e-01 -3.890032800142620428e-01 2.726989143833348783e-01 7.609781438045739588e-01 -5.045147174308655114e-01 6.791101054478577703e-01 -1.033118614581711947e+00
-1.123572080607915420e-02 -3.323253677503329451e-02 -6.274335030493715104e-01 4.724782578455319348e-01 -3.122399098699918732e-02 -2.447731345290675709e-01 -2.521321459915755181e-01 2.557291193114164529e-01 -2.713881659927309675e-01 -9.107104500506400802e-02 1.862224307239146726e-01 6.030244780963753826e-01 2.577710894405212394e-01 -1.119818269995358079e-01 -6.048000819381781357e-01 -1.066092498378921061e+00 -2.861473265682953904e-01 -6.004544033783532075e-01 4.125556133945840753e-01 1.262787032270607235e-01 -2.825832633688934448e-01 1.154091075108638481e-01 -2.849733608657655237e-01 -3.275950521578788743e-01 -2.316214276486885937e-01 -9.613406134632970779e-02 2.677860504665714458e-01 1.365343195088201123e-01 -1.742256633826869128e-01 -1.225387765715635000e-02 -2.546970785032791063e-01 -4.351885202851455969e-01 -5.519001486565036085e-01 -1.944463612892063931e-01 -3.407107635940277990e-01 4.851126587702626614e-01 9.733785184550734770e-02 -1.954845727449260051e-01 -3.338294630985151890e-01 -2.225685734248431524e-01 4.718899894426873548e-02 1.925000361976270113e-01 1.501241423675413744e-01 -1.755641796874111427e-01 -3.162117500304567064e-01 1.896440548082922728e-01 1.153602565508374256e-02 -2.497461622597582087e-01 3.613217549601269174e-01 3.205959951376709527e-01 5.466813234637852847e-01 -1.418955838165629479e-01 -2.879584116336963429e-01 2.724623728926805488e-01 -1.700579051614845294e-01 -4.799180019472414349e-01 3.498109261160041727e-01 -1.896605098685117119e-01 3.485629126424868440e-01 -5.590185048633024012e-01 -6.714374193999168572e-01 -1.451202613989392431e-01 2.587789618789612667e-01 3.536567822216639678e-01 2.983148151592997580e-02 6.708167550972652382e-01 1.140371668650689285e-01 1.439061864871244989e-01 4.749454884371827057e-01 1.540738710408362799e-01 5.592668734284894638e-01 4.995540309953393487e-01 5.613196421908632772e-01 -1.997006677055229440e-01 -3.704630551326518195e-01 2.789235551319659279e-01 9.329042125215955550e-02 1.925144343753190102e-01 7.064774416959281045e-02 3.177801229576210917e-01 5.968641149267264190e-01 4.089545263096883848e-02 -7.426055548489491898e-01 -5.665955458737178541e-01 -2.358802029217296758e-01 -1.496304905609584790e-01 -7.661985116591880640e-01 -2.283000765875231597e-01 5.381329196797917103e-01 1.280620203783413846e-01 4.127957544296614878e-02 -4.489531781586983405e-01 1.066200484711611052e-01 -1.817559103156033140e-01 -5.438212283093957211e-01 3.435682876452581525e-01 1.856495889400257560e-01 3.363532579596701932e-01 -2.914689958873852849e-01 1.080326125468727527e+00 3.166282687422610209e-01 4.764305576219861338e-02 -3.075399332948174358e-01 1.317212143946369929e-01 -3.509000454142776060e-01 3.133120598874141183e-01 -1.933094194721702019e-01 3.645392334536572410e-01 -4.296040842231766965e-01 7.786174541391704951e-02 -2.120687023429515816e-01 2.129043108697195041e-01 -2.329332044805562663e-01 1.687358439169797386e-01 -1.728712062383750969e-01 -3.170298750557414835e-01 -1.766399292492563250e-02 -1.131233968022587327e-01 1.707202213353166131e-01 3.144757411773069222e-01 2.071594379706112043e-01 5.770172554195671794e-02 5.309122335672533666e-01 8.091518752588491847e-02 -4.103799459011964745e-01 1.783790234261972418e-01 1.463435922821274549e-01 -2.377118568124048925e-01 2.815707629447666283e-01 2.956521807275433456e-01 5.764192168247171955e-01 -1.308223567301506629e-01 -5.170688999370264272e-01 4.581993793401220594e-01 -3.408537169296841363e-01 2.290606089020398861e-01 4.455464664726445367e-02 -1.237261120105217077e-01 -1.794100357930708822e-01 4.553835071600722401e-02 -1.354976507149960319e-01 -1.087910879788620971e-01 4.232416323452080076e-01 -1.830049522303843768e-01 -3.223258333432384437e-01 1.125387279438371385e-01 -1.718021415447440747e-01 4.354420310566511215e-03 2.332653910087360005e-01 -1.854377300397006267e-01 -5.412038452932427246e-01 1.327393712457141939e-01 1.926532739459204391e-01 3.970513471234586311e-01 2.791868360954767869e-01 2.155612888745254627e-02 1.655733870310581723e-01 -2.864352901221354775e-01 3.103167247068461601e-02 -4.920551515209662941e-01 2.144819397682573014e-01 -4.503564862630365373e-01 6.346536749412780010e-01 5.413935927063979747e-01 4.375086837760852054e-01 1.318718810397711584e-02 -1.258220753059715313e-01 2.441211027678726608e-01 1.384713886290260543e-01 2.371076475699727126e-01 -1.599652968200238889e-01 -1.076310062333923068e-01 -3.518760361735425723e-01 -2.912571369870601834e-01 1.538928653784225609e-01 4.176314852516462284e-01 -3.195978928912361350e-01 -3.077425362237691253e-01 2.163300487191519572e-01 5.214660005600370990e-02 -3.449376571878937647e-01 -1.855688563008242309e-01 -4.265871517760707471e-02 1.118794970937962430e-01 -2.349309516353213778e-01 1.911023845202392268e-01 -4.122918182104414186e-01 -3.809068761656709268e-01 -3.185329419626599656e-01 3.269754162964909616e-01 1.176799058211451254e-01 1.368852750900626081e+00
1.605828757988843614e-01 -9.183054887831706981e-02 -5.074606874307752147e-01 3.847306207841608150e-01 1.029742241912937895e-01 -1.456113421023628729e-01 -2.370587966099463040e-01 3.388071188148926161e-01 -4.302057223624495830e-01 -3.268448042559992106e-01 9.755536717278293080e-02 6.268375213370489529e-01 1.032035665931020918e-01 -9.645133547618557623e-02 -8.274437315752724009e-01 -8.232754591334381367e-01 -2.422390552552754553e-02 -5.596720792863929539e-01 3.082531573112032852e-01 1.066169631473699725e-01 -3.843876356227121094e-01 2.899988391009056810e-01 -3.523259792264175627e-01 -5.660386449294166344e-02 -2.136437601383300855e-01 -1.771407801446851782e-01 3.721424997162973702e-01 6.835329171024612238e-02 -5.667482694013795119e-02 2.196642552961138306e-01 -2.853677680903999869e-01 -3.589198303887220498e-01 -4.294441616066691503e-01 -3.779562781800744897e-01 -3.244552209797589848e-01 4.495393896790155219e-01 -5.328045654924876834e-02 -3.073296170563878382e-01 -4.978391051880957097e-01 -1.413258273564651779e-01 -4.023159379524123003e-02 2.582940518231199856e-01 2.096600929033326233e-01 -2.342326400172593109e-02 -1.966281994301763425e-01 3.128621168345391279e-01 1.428129534237961573e-01 -2.629929999570307930e-01 3.060744044940245101e-01 -1.250018933981593590e-02 3.671041659653607736e-01 -7.328312490786080546e-02 -2.723610714282047596e-01 1.469956240433223649e-01 -1.762578633197864342e-01 -5.139475807016534725e-01 5.126383749729450656e-01 -1.340691457996968095e-01 1.316039720905735344e-01 -5.667575253727529239e-01 -7.420116300191541558e-01 -1.438686483809989147e-01 3.668254583828942095e-01 3.125402147189965674e-01 2.922994622078345928e-01 5.519978505765564814e-01 1.957689367543430023e-02 1.019349842943104434e-01 4.164055832652988065e-01 3.873881130095987307e-02 2.985523850912177868e-01 2.762511505082042573e-01 4.880082351482503689e-01 2.721718382356812932e-02 -5.108108348473247018e-01 1.917539020608022560e-01 7.901154274674968003e-02 9.911294146667828930e-02 1.652345156346643126e-02 3.013260911794553576e-01 3.078294395105529713e-01 2.491671498282870822e-01 -7.181713330849919252e-01 -6.305363103419976412e-01 -1.908529875137884857e-01 -1.425728123887188281e-01 1.750473879523946619e-01 -1.433986507234814578e-01 5.276340770391638735e-01 1.703170723599405634e-01 -3.797365100075639904e-02 -4.390899122190459747e-01 -7.100358484683797627e-03 -3.383576899826494233e-01 -4.025283110733693381e-01 2.632259419032620951e-01 2.517711631080117862e-01 1.401215226366556987e-01 -2.683486078378232165e-01 7.747170906465338236e-01 3.207749439175572315e-01 1.929520361330294420e-01 -2.136350183875885267e-01 1.517192547675623171e-01 -1.958044179779411809e-01 2.994003349131502678e-01 -4.600330901133247163e-01 2.092224911456221359e-01 -4.032903860497816795e-01 -1.268350899507301732e-01 -3.447021441385031970e-01 2.311488588880118711e-01 -1.564362006235881508e-01 3.304458913408950815e-01 -1.185633368666757365e-01 -4.269568764103760516e-01 -1.282157723472666759e-02 -2.633221011614194154e-02 1.237471950564278528e-01 6.301424173379951421e-01 3.021318749095756040e-01 2.533462209033902901e-02 5.574758429677310057e-01 -9.307907657246627595e-03 -3.124080600166092569e-01 1.158482519304698671e-01 2.040843985921053094e-01 -1.039995801312169899e-01 2.988676023385462566e-01 3.345483435418515339e-01 4.792402591544537849e-01 -1.713038617524744733e-01 -3.337451309148906087e-01 5.783166909562701408e-01 -3.370716241823746850e-01 7.009032900465964055e-02 -1.344584108180127066e-02 1.660248727458287499e-01 -2.011394570334593124e-01 2.308207861248869897e-01 -2.967603261891955113e-01 -2.107142451986398213e-01 3.271703059159648541e-01 -1.735931720055025884e-01 -3.841742340604913930e-01 -1.269816428308094547e-02 -2.050218228039809298e-01 2.748920653782057147e-02 6.211322434265936776e-02 -2.178218027721696148e-01 -3.942565579893148597e-01 -3.657137133768189642e-03 5.121843181550151530e-02 4.664371938624739533e-01 2.209760321279815032e-01 1.441447848603061854e-01 4.683850616159488944e-01 -4.960038517529974378e-01 1.688926812096961938e-01 -4.788185982363308280e-01 2.854135337266352490e-01 -3.380820677239739780e-01 4.688041514309124747e-01 3.446856890782837857e-01 2.218435223339245144e-01 -1.226477913455172458e-01 -3.582318031832971983e-02 5.310047932809875554e-02 1.661020058406073585e-01 3.188790124478999011e-01 3.360688939502531891e-02 2.686237158758667670e-02 1.206464446463291311e-02 3.959653131489762612e-02 2.378964620192416946e-01 7.819578313637146616e-01 -4.485556856102727030e-01 -2.341436798479480386e-01 2.839634315447980284e-01 2.615017601246450232e-02 -2.197393315083649712e-01 -1.829602150354127932e-01 1.982387384491530180e-01 -9.354187514113770918e-02 -3.751851431949962401e-01 -1.820474734138663175e-01 -1.417356612000553739e-01 1.762902592195934523e-02 -2.243189804556849631e-01 9.542340843310308240e-02 -4.682133119249086428e-02 4.147924731431628098e-01
2.971423921186654160e-02 -4.895586103532997141e-02 -6.087307844480943642e-01 4.695507997883691109e-01 -1.315376376290639665e-02 -2.412399245675769799e-01 -2.557887689047118607e-01 3.080978626803824172e-01 -3.145569880371403282e-01 -1.536830633606248442e-01 1.634979925608826268e-01 6.239789688445549487e-01 2.215555587800845105e-01 -1.056219462247263569e-01 -6.808255454757331515e-01 -1.022288099633536174e+00 -2.452102220661461496e-01 -6.125396166682604004e-01 3.918248086212623438e-01 1.215818119756773286e-01 -3.181303072079158523e-01 1.639489640550213789e-01 -3.088974757629203149e-01 -2.749619993841382892e-01 -2.343097731120378779e-01 -1.141436105358633601e-01 2.957401124555909533e-01 1.246511949272327557e-01 -1.551671041041646215e-01 3.437462079838807250e-02 -2.737119290280934925e-01 -3.715526886515571059e-01 -5.395866214060519583e-01 -2.455629774196002035e-01 -3.396658672700940129e-01 4.819044362481056942e-01 6.673555360242346135e-02 -2.283278445016434233e-01 -3.556010504307158815e-01 -2.007152250121771453e-01 1.803320333859908045e-02 2.120671596810560222e-01 1.611737153048882210e-01 -1.526649065095476154e-01 -2.710359248599087945e-01 2.241009509077775130e-01 4.772481684266390023e-02 -2.622725768517988887e-01 3.570161856095868669e-01 2.374269785823560353e-01 5.142324589317022188e-01 -1.314862155658782505e-01 -2.910339652328341464e-01 2.485541988351133436e-01 -1.793570710679896207e-01 -5.016844470731236516e-01 3.903556802760463906e-01 -1.782525251507604269e-01 2.913430118325802676e-01 -5.800748112965897763e-01 -7.099201488262119053e-01 -1.537488836015025728e-01 3.061042292906722140e-01 3.485515997885859640e-01 9.283585021359781753e-02 6.564057218894681078e-01 9.641945379701043206e-02 1.348137372746260054e-01 4.761559638045744780e-01 1.321804134188854229e-01 5.057627309043829511e-01 4.529599853221293881e-01 5.587907051233896860e-01 -1.547906946016451846e-01 -4.217030842146913261e-01 2.632711933188655595e-01 8.913346166422619898e-02 1.699730587572281237e-01 6.058804594857100656e-02 3.205965093583028058e-01 5.366308812141368234e-01 1.127063638698225512e-01 -7.515632782559009684e-01 -6.002055205925342918e-01 -2.427717878298794874e-01 -1.490730753960253230e-01 -4.533693049450877588e-01 -2.246794491186168141e-01 5.531661598521360190e-01 1.322158946424835668e-01 2.005871840748447293e-02 -4.622144140336628682e-01 7.075984426733766819e-02 -2.335780371529051214e-01 -5.285144227609033241e-01 3.301790108329611395e-01 2.015981418370758893e-01 3.021051354367189634e-01 -2.896404273205012148e-01 1.023497546559664073e+00 3.263331547273013444e-01 8.815438558117015544e-02 -2.923596260217619092e-01 1.376800030765978622e-01 -3.179251331758048416e-01 3.152239321966591179e-01 -2.959931090064646386e-01 3.342022730566116540e-01 -4.305157974034595214e-01 4.038174621974352507e-02 -2.376064415828742227e-01 2.031567445722349818e-01 -2.149293117179729984e-01 2.154414754673028010e-01 -1.578446509342449344e-01 -3.471626898619397661e-01 -1.846823399315024317e-02 -9.344057367666185054e-02 1.573057477120585745e-01 4.105326694288580769e-01 2.330550747703064030e-01 5.623773940305935165e-02 5.493161899814212878e-01 5.165654779384382805e-02 -3.901541057883584074e-01 1.724073792284399609e-01 1.671957531245675255e-01 -2.097588232646491746e-01 2.890233625622725677e-01 3.085652892347406362e-01 5.319540445673960338e-01 -1.366597893429932487e-01 -4.805628346195903733e-01 4.984926796111862624e-01 -3.418194232763118734e-01 1.928908438778384471e-01 3.433194048594392922e-02 -5.449813100548654698e-02 -1.815450798565418633e-01 9.441862131845417394e-02 -1.730336999580419921e-01 -1.324143838063804590e-01 4.176325136929099346e-01 -1.932873079850003228e-01 -3.373199927475616366e-01 8.521715733200199705e-02 -1.756212581775472847e-01 1.661909660099186378e-02 1.947348390636782500e-01 -1.928116539005324537e-01 -5.177085904030567232e-01 1.073507559890301416e-01 1.719888036341082060e-01 4.181374783533937101e-01 2.697118067328765911e-01 5.108370600995494615e-02 2.468058486867989731e-01 -3.400561607296736510e-01 5.880524301792219855e-02 -4.917836430273456738e-01 2.435184361873360681e-01 -4.330097674679667663e-01 6.111465929765593774e-01 5.093684459749653337e-01 3.972194972700759386e-01 -1.984480262463188607e-02 -1.055196163189867642e-01 1.870930062536488581e-01 1.582287737462422239e-01 2.636835982656149935e-01 -1.110927395270547707e-01 -7.492400294411703798e-02 -2.643525993076611957e-01 -2.183709904069930652e-01 1.770574764023243319e-01 5.268879429023390903e-01 -3.450137618414085838e-01 -2.845198182684675059e-01 2.348970130736187933e-01 5.895385278052891337e-02 -3.233090231913493540e-01 -1.988995119610894591e-01 1.324272393221768811e-02 7.218886340326874373e-02 -2.698064233291382896e-01 8.663486361403222036e-02 -3.547839538466948106e-01 -2.902271530614501938e-01 -3.009476247944085081e-01 2.636074936121001189e-01 8.681792615897336585e-02 1.061445486528827864e+00
-7.239984812851973928e-01 -4.570804352452008390e-02 -2.605987886951038335e-01 1.518272411002523081e-01 -9.247723274494062951e-01 5.004708863819405940e-01 1.622746616776944428e-01 2.313504333756998821e-01 5.857528355135566134e-01 5.393541936804524539e-01 -2.307539374427455270e-01 5.721578704485168476e-01 -1.709176820579497436e-01 1.778010394359898216e-01 1.182841150635773053e-01 -9.524600231511237691e-02 -2.986747696015998321e-01 -1.933814103606301960e-01 -2.294565587885699365e-01 -1.005136784678572065e-01 8.950560313550123270e-01 -7.932768559121546881e-01 -3.904970909498071685e-01 -1.247828354089881853e-01 8.859353000077617446e-02 -2.799715367796908327e-01 6.559094989797258357e-01 4.388307450205899407e-01 2.322611181147189174e-01 -1.368855322003785383e-03 -2.984279436983083844e-02 -1.124323871171690747e+00 -5.239738545816045034e-01 3.999170987047986348e-01 2.773299853938405168e-01 5.059535067588017965e-01 -6.322034136304786889e-02 2.726449212169898897e-02 -3.854854966717272124e-02 -2.118527296775715996e-01 2.571771646107262055e-01 3.609191202053827485e-01 1.151597105044131243e-02 -7.859363563923935647e-01 3.425686427369277476e-02 -6.823635793856179799e-01 -3.713891664906265322e-01 4.600906828240927116e-01 -2.278413917839065550e-01 -3.903865335139578563e-01 2.697642572373259995e-01 1.755785778651031137e-01 2.103974852894157921e-01 -1.296574413107414170e+00 -3.942169630006618908e-01 2.618971957905431580e-01 -6.524390239353218268e-01 1.622484364254697387e-01 -1.048214589671143004e+00 -2.111847570767891313e-01 2.647218097213345778e-01 1.054841350953886203e-01 -1.457085298017838648e-01 -1.141523522866049190e-01 1.790629368665672960e-01 -8.632077765209386078e-01 2.459938943090965169e-01 -6.193119023898193548e-02 -1.278006420311683655e+00 -2.634830522191906610e-01 1.411278524132001701e-02 1.324735191790440449e-02 2.784273322222237668e-01 5.584050396494969482e-01 -2.584622019697372930e-01 2.108340586058625177e-01 1.205487427262762548e-02 -1.075066676846092362e+00 3.255042310687475959e-01 1.742056087780445017e-01 -1.099743096527654229e+00 3.658921479360733864e-01 4.688658579067353505e-01 -5.712502710332889588e-01 -6.408135238902950004e-01 -2.522190492783594196e-01 1.472383361815589042e-01 -6.105392984103359399e-01 -4.572964079105808384e-03 -1.098608211593145478e+00 -1.856516458225532240e-01 1.646426476873966982e-01 -9.200317274443150506e-01 -6.319036230021058964e-01 5.071346715501777458e-02 -5.034050293073177862e-01 6.134760124388722868e-01 -2.144222901749618659e-01 2.802281328749875455e-01 4.805083272326135524e-02 -3.445478779489460353e-01 2.414852078089728127e-01 -2.386857906891424186e-01 -1.201682194587019512e-02 -3.789147854378562275e-01 6.181898729711070573e-01 7.410119851108237787e-01 -1.627611143954313042e-02 8.659352027523089523e-01 5.755362999998184931e-02 1.092554292094291002e-01 3.490375382856909792e-02 -7.781649399831361280e-02 7.844636285027546396e-01 5.655388224752513349e-01 8.510731980503731808e-01 -2.918520902581188681e-01 -3.845814968009222401e-01 -1.304114944452967710e-02 2.743485341703326696e-01 3.234087819939297087e-02 9.846821163845576041e-01 -9.816677550406109620e-02 -7.573179213470145887e-01 8.188346497567197679e-02 1.103487136948206437e+00 1.445967847957086716e-01 2.235836449521292069e-01 -6.588251299623560930e-01 2.833818480101675530e-02 2.198498889442143112e-01 -3.995417176435428486e-01 8.991456280401723122e-02 -1.334474530557815120e-01 5.576028554637996182e-01 2.463589909577150461e-01 -7.309646281849665507e-03 9.490018894018843465e-01 -4.696582719004272627e-02 5.915028506189835833e-02 -6.905669411256354362e-01 -2.767453165354189504e-01 3.810143482777290647e-01 3.419906587467203551e-01 4.489362088778470206e-01 5.861189606034390015e-02 -3.481767329479620865e-01 -1.162030641664513197e-01 -2.444368342358329560e-01 6.896470004152428779e-02 2.908277627594594086e-02 8.608063661701657043e-01 1.282891516314326852e+00 3.751676596935130670e-01 2.739284159141053832e-01 -3.667971762481420650e-01 -5.348712182119216285e-01 -9.767260947684634764e-02 1.171692847337109517e-01 -3.903387109951951817e-01 -7.845772712623950984e-02 5.075357636430263483e-04 -2.639371090371205875e-01 -4.509838354339023025e-01 1.327175168688602414e+00 1.151391416791388289e-01 -3.040915697375832782e-01 -1.082161893124457680e-01 -4.319278472585392770e-01 -3.227701199691630496e-01 5.741324776748484016e-02 3.722931663614315045e-01 6.111100833116974579e-02 6.487572042112246251e-01 2.994928946268845538e-01 -5.466602404178791952e-01 1.405002461320185025e+00 7.888283332259582448e-01 -1.348821286186629997e-01 -2.106782497544097965e-01 8.605178883956938751e-01 -5.348100259567306614e-02 -2.764799786893806233e-01 -2.664331359841552727e-02 2.518776067788062178e-01 4.417042099114077969e-01 -3.937978731856983106e-01 2.016655047398491774e-01 8.623809097449122163e-01 -4.668454850441685067e-01 6.348794177986633036e-01 -1.009409443908673376e+00
1.169980492633024977e-01 -7.842893077085549836e-02 -5.475303017269814720e-01 4.197140788106678011e-01 5.183241124993897414e-02 -1.953678446614944275e-01 -2.493198733559486846e-01 3.476080049291280782e-01 -3.970662595217824831e-01 -2.724947687924875739e-01 1.184378670325025862e-01 6.366992446148057594e-01 1.433755107950479002e-01 -9.811998142656210009e-02 -7.950910263013466484e-01 -8.986571184399081424e-01 -1.160302860341473064e-01 -5.981841192887038527e-01 3.389608707838178692e-01 1.115421683592979218e-01 -3.705484157575401061e-01 2.522036226594037145e-01 -3.423500989683884721e-01 -1.390241758082725043e-01 -2.263527230546800162e-01 -1.560500209290633933e-01 3.462437775928109973e-01 8.729923667039167501e-02 -9.756822268857935632e-02 1.504177623483317905e-01 -2.909948844648130306e-01 -3.383042110369362532e-01 -4.794911988228001132e-01 -3.392889435469427784e-01 -3.317957204995201081e-01 4.628124526285127271e-01 -9.171639189804476483e-03 -2.855112356466881218e-01 -4.388821670837756428e-01 -1.652458284885651718e-01 -2.705057633884640558e-02 2.442321744243538262e-01 1.891822846808845493e-01 -7.876523106409008546e-02 -2.147652753364105993e-01 2.865355631453476160e-01 1.138443341281224902e-01 -2.692150696025025769e-01 3.290446401190842418e-01 6.860783092301542263e-02 4.239738825249726450e-01 -9.726946050147033951e-02 -2.833890470990135801e-01 1.843779213174430165e-01 -1.864384033892946546e-01 -5.196590292596909855e-01 4.732326195124664237e-01 -1.504984949875333988e-01 1.825858624154207965e-01 -5.852622690307650588e-01 -7.469712880134165012e-01 -1.546801371657959001e-01 3.598449133054331117e-01 3.280573365059185065e-01 2.260596172945214255e-01 5.950016077981398199e-01 4.794336061120320347e-02 1.133033740234087455e-01 4.469621158721473475e-01 7.402463105899884099e-02 3.732393323240486560e-01 3.408912550358096927e-01 5.212212315392731332e-01 -4.124872220505471088e-02 -4.952217221719427687e-01 2.185427400980333723e-01 8.235757639824427268e-02 1.225968835029633691e-01 3.283915799166256533e-02 3.130066128320909691e-01 3.900908566506400277e-01 2.144958237253174471e-01 -7.415570589805923207e-01 -6.332164282752371642e-01 -2.200905441999234657e-01 -1.478348321145132593e-01 2.357547330875565256e-02 -1.835155733178185367e-01 5.484430433485278922e-01 1.540995820724291310e-01 -1.999238394597489810e-02 -4.607761389263583807e-01 1.063305422554255281e-02 -3.169013198977771451e-01 -4.593651175125423314e-01 2.890886685825184710e-01 2.356529174024488416e-01 2.055843801752326727e-01 -2.788711046275164640e-01 8.668690274197614620e-01 3.300072611419208601e-01 1.638394350604358007e-01 -2.442558285734192092e-01 1.479171074156103993e-01 -2.390591148678706812e-01 3.085020400970221455e-01 -4.275266328704737662e-01 2.548683139736875325e-01 -4.181955852847936139e-01 -6.032167966126899400e-02 -3.040920839582151314e-01 2.191202098676089394e-01 -1.754747052974679755e-01 2.980093681039766573e-01 -1.301327868628301687e-01 -4.025463087954843644e-01 -1.550478049175737713e-02 -4.990202699794716451e-02 1.344537828323259798e-01 5.709180845051091691e-01 2.816288698761664766e-01 4.124357999873613789e-02 5.642650979701411273e-01 9.039484487417183411e-03 -3.400330208012400934e-01 1.421943460036719509e-01 1.984223152147260305e-01 -1.422457680668576807e-01 2.990090130123069789e-01 3.281416686895430312e-01 4.873155799571387559e-01 -1.534069268813175457e-01 -3.873629161986377190e-01 5.594581635035403844e-01 -3.395655942468819299e-01 1.178352004519659796e-01 5.661054936115579583e-03 9.366374543088785976e-02 -1.903835040769029097e-01 1.874308492087790323e-01 -2.535889330416268850e-01 -1.827226451034947852e-01 3.714652711441414623e-01 -1.876452792122634550e-01 -3.676554104827116642e-01 2.257891372421645670e-02 -1.905300569569821911e-01 2.841428945453161603e-02 1.091561846274806680e-01 -2.096096992814105997e-01 -4.422050608068366362e-01 3.903551660554144959e-02 1.045451682216174405e-01 4.533456507960222925e-01 2.408871692141229537e-01 1.127742409932277062e-01 4.000986185878442347e-01 -4.458262024963748349e-01 1.281144708827908207e-01 -4.849959306868310005e-01 2.808991907995611603e-01 -3.755738939926802633e-01 5.318943949741005150e-01 4.128142663724083672e-01 2.947039578823987815e-01 -8.739333904602154812e-02 -5.857692905737762329e-02 9.228974790256549987e-02 1.742308055890054719e-01 3.051277243107753945e-01 -1.236392087237378479e-02 -7.410433525693671010e-03 -8.141500998005007927e-02 -5.090167190627750693e-02 2.200422074605288547e-01 7.107907243559461463e-01 -4.105264987812757282e-01 -2.459959511916239017e-01 2.696891810250748867e-01 4.744919458398846185e-02 -2.596994168099856504e-01 -1.977384017743560041e-01 1.346126770075698476e-01 -2.832070129953361687e-02 -3.390071506406850399e-01 -9.791635005634666267e-02 -2.192647058651608361e-01 -8.896685417950449259e-02 -2.541309215876043637e-01 1.509998601035941468e-01 6.130538373001175566e-03 5.785501471231333515e-01