7.882729999999999571e+00 6.731440000000000090e+00 4.243369999999999642e+00 8.764729999999999466e-01 7.802660000000000151e-01 5.406019999999999825e+00 1.109050000000000091e+00 1.010130000000000017e+01 6.069840000000000124e+00 9.033179999999999765e+00 2.834810000000000052e+00 2.440249999999999808e+00 1.110100000000000087e+00 1.069510000000000005e+01 1.010849999999999937e+01 9.082599999999999341e+00 3.293590000000000018e+00 6.215930000000000177e+00 8.447010000000000574e+00 4.854460000000000441e+00 2.872089999999999921e-01 5.687759999999999927e+00 7.456970000000000098e+00 1.128179999999999961e+00 4.989950000000000330e+00 4.714380000000000237e+00 5.452169999999999739e+00 9.140489999999999782e+00 4.992719999999999936e-01 1.680569999999999897e+00 6.659159999999999968e+00 9.695080000000000808e+00 4.393010000000000304e+00 4.236629999999999896e+00 2.853340000000000209e+00 6.496199999999999974e+00 1.097649999999999970e+01 1.028560000000000052e+01 2.414190000000000058e+00 1.067590000000000039e+01 1.152590000000000003e+00 3.872339999999999893e+00 5.118610000000000326e+00 3.015769999999999840e+00 3.342389999999999972e+00 1.162400000000000055e+01 1.217950000000000088e+01 5.774029999999999996e-01 8.186500000000000554e+00 7.373700000000000365e+00 5.406790000000000207e-01 3.812930000000000152e+00 9.486209999999999809e+00 3.005510000000000126e+00 4.624900000000000233e+00 1.197830000000000084e+01 5.887719999999999843e+00 9.791280000000000427e+00 6.061980000000000146e+00 1.009089999999999954e+01 6.671639999999999793e-01 1.694630000000000081e+00 2.072249999999999925e+00 3.314529999999999976e+00 9.612379999999999924e+00 5.702519999999999811e+00 2.578599999999999781e+00 1.652390000000000025e+00 3.991540000000000088e+00 3.425479999999999858e+00 3.998769999999999936e+00 2.209950000000000081e+00 7.307970000000000077e+00 2.347630000000000106e+00 4.781699999999999839e-01 7.357820000000000249e+00 3.616769999999999818e+00 4.712629999999999875e+00 5.157939999999999969e+00 6.972669999999999924e+00 3.890280000000000182e+00 5.879269999999999996e+00 1.650479999999999947e+00 8.667419999999999902e+00 8.291109999999999758e+00 8.809770000000000323e+00 2.870190000000000019e+00 2.389629999999999921e+00 3.527270000000000127e+00 8.061970000000000525e+00 6.308569999999999567e+00 1.071710000000000029e+01 7.034209999999999852e+00 1.050799999999999912e+01 2.743340000000000223e-01 1.014289999999999914e+01 1.120410000000000039e+01 1.046279999999999966e+01 7.910050000000000026e+00 4.597089999999999677e+00 4.401469999999999771e+00 1.194650000000000034e+01 8.718489999999999185e+00 1.019560000000000022e+00 6.852509999999999657e+00 1.111400000000000077e+01 9.407610000000000028e+00 1.174970000000000070e+01 4.428270000000000373e+00 8.449820000000000775e+00 1.014329999999999998e+01 6.731230000000000047e+00 1.196330000000000027e+01 3.266620000000000079e+00 6.835960000000000036e+00 4.980590000000000295e+00 2.468230000000000146e+00 5.571519999999999806e-01 7.807409999999999961e+00 4.593440000000000190e+00 9.430630000000000734e+00 9.325789999999999580e+00 9.864110000000000156e+00 7.783850000000000158e+00 8.298460000000000392e+00 6.769099999999999895e+00 6.598939999999999806e+00 1.074029999999999951e+01 1.828680000000000028e-01 1.137279999999999980e+01 3.846579999999999888e+00 5.691789999999999905e-01 7.411349999999999660e+00 1.145289999999999964e+01 9.589040000000000674e+00 2.150840000000000085e+00 6.742629999999999457e-01 7.500370000000000203e+00 3.925370000000000026e+00 1.069969999999999999e+01 8.620290000000000674e+00 2.219549999999999912e+00 4.717430000000000234e+00 4.568749999999999645e+00 1.107460000000000022e+01 3.931119999999999948e+00 4.944619999999999571e+00 9.470670000000000144e+00 5.778039999999999843e+00 6.716199999999999726e+00 7.114620000000000388e+00 7.343569999999999709e+00 9.881080000000000751e+00 1.082230000000000025e+01 2.533520000000000216e+00 7.999439999999999884e+00 1.066699999999999982e+01 7.424870000000000303e+00 1.869809999999999972e+00 8.326310000000000100e-01 3.071299999999999919e+00 1.055320000000000036e+01 8.161279999999999646e+00 3.709680000000000089e+00 1.033360000000000056e+01 1.406390000000000029e+00 8.186099999999999710e+00 9.028100000000000236e+00 5.980630000000000113e-01 5.577309999999999768e+00 8.063850000000000406e+00 3.713799999999999990e+00 5.819919999999999538e-01 1.177800000000000047e+01 6.537630000000000052e+00 4.687490000000000379e+00 7.662410000000000387e+00 3.459119999999999973e+00 1.455519999999999869e-01 2.309890000000000221e+00 2.520199999999999996e+00 1.000380000000000003e+01 1.904009999999999869e-01 9.923489999999999256e+00 1.008500000000000085e+01 4.717819999999999681e+00 3.232070000000000221e+00 6.625200000000000422e+00 1.677710000000000035e+00 3.583120000000000083e+00 5.926449999999999996e+00 7.520920000000000272e+00
6.249880000000000102e+00 2.099839999999999929e+00 4.110540000000000305e+00 6.879010000000000069e+00 1.057970000000000077e+01 6.105019999999999669e+00 3.406799999999999828e-01 6.198319999999999830e+00 8.023070000000000590e+00 8.232870000000000132e+00 6.645260000000000389e+00 6.293919999999999515e-01 2.925580000000000069e+00 1.961920000000000108e+00 3.486819999999999808e+00 7.832119999999999749e+00 8.008749999999999147e+00 5.662959999999999994e+00 1.531970000000000054e+00 9.796450000000000102e+00 3.153369999999999784e+00 1.166329999999999956e+01 1.053090000000000082e+01 7.951489999999999725e+00 9.017210000000000392e+00 6.280969999999999942e+00 1.020770000000000088e+01 1.125830000000000020e+01 4.378969999999999807e+00 9.934400000000000119e+00 1.076750000000000007e+01 5.426510000000000389e+00 5.964240000000000208e+00 5.393290000000000362e+00 2.433089999999999975e+00 1.041810000000000080e+01 4.663280000000000314e+00 6.345180000000000042e+00 4.122040000000000148e+00 9.970480000000000231e+00 7.390649999999999942e+00 6.853769999999999918e+00 1.031970000000000054e+00 9.134930000000000661e+00 9.011459999999999582e+00 3.053889999999999993e+00 5.326800000000000423e+00 1.182880000000000043e-01 9.051199999999999524e-02 6.649540000000000006e+00 4.124959999999999738e+00 3.599040000000000017e+00 9.432019999999999627e+00 1.210280000000000022e+01 5.324390000000000178e+00 1.173959999999999937e+01 3.854900000000000215e+00 8.882400000000000018e-02 9.980599999999999472e-01 5.458800000000000097e+00 6.547130000000000116e+00 8.523740000000000094e+00 1.063490000000000002e+01 5.465080000000000382e+00 6.320479999999999876e+00 9.571859999999999147e+00 4.165599999999999858e-01 3.805600000000000094e+00 3.509339999999999904e+00 1.155339999999999989e+01 9.302510000000000501e-01 1.028509999999999991e+01 7.927489999999999704e+00 1.123269999999999946e+01 3.207370000000000054e+00 2.596950000000000092e+00 1.184329999999999927e+01 1.833020000000000094e+00 1.091670000000000051e+01 1.154490000000000016e+01 3.369299999999999962e+00 9.067840000000000344e-01 1.583399999999999919e+00 8.103780000000000427e+00 6.454349999999999810e-01 4.147610000000000241e+00 6.563299999999999912e+00 7.547100000000000364e+00 9.578780000000000072e+00 8.309630000000000294e+00 7.301300000000000345e+00 4.584500000000000242e+00 4.840819999999999901e+00 7.791209999999999525e-01 4.299349999999999561e+00 1.153860000000000063e+01 2.476119999999999877e+00 6.358889999999999709e+00 5.649339999999999584e+00 4.071449999999999569e+00 1.960800000000000098e+00 6.236429999999999474e-01 5.798470000000000013e+00 5.422959999999999781e+00 4.251030000000000086e-01 2.424450000000000216e+00 3.598460000000000214e+00 8.465619999999999479e+00 2.771269999999999900e+00 7.567109999999999559e+00 1.765759999999999996e+00 5.682850000000000179e+00 9.007820000000000604e+00 3.745779999999999887e+00 8.156840000000000757e+00 1.186420000000000030e+01 3.720180000000000153e-01 9.851039999999999353e+00 2.019449999999999967e+00 4.156780000000000364e+00 1.098700000000000010e+01 8.765390000000000015e+00 2.406379999999999963e+00 5.028500000000000192e+00 8.437879999999999825e+00 7.231740000000000279e+00 5.208289999999999864e+00 9.644139999999999935e-01 6.881129999999999747e+00 6.159880000000000244e+00 9.512230000000000629e+00 8.426430000000000309e-01 7.411450000000000315e+00 3.717569999999999819e+00 1.134169999999999945e+01 7.461509999999999643e+00 4.987040000000000362e+00 8.456279999999999575e+00 4.001450000000000173e+00 4.184429999999999872e+00 2.613869999999999916e+00 7.281330000000000302e-01 9.028330000000000410e+00 5.515869999999999607e+00 2.210739999999999927e+00 7.201769999999999783e+00 1.031000000000000050e+01 8.914970000000000283e+00 6.085849999999999760e+00 3.327220000000000066e+00 9.267699999999999605e+00 6.913160000000000416e-01 9.524390000000000356e+00 1.199239999999999995e+01 5.869250000000000078e+00 1.415710000000000024e+00 5.076869999999999994e-01 1.812529999999999974e+00 1.881229999999999958e+00 5.196329999999999671e+00 3.900110000000000188e+00 6.255919999999999703e+00 7.691300000000000026e+00 2.089760000000000062e+00 7.331780000000000186e+00 6.173799999999999955e+00 2.060579999999999912e-01 9.660569999999999879e+00 4.877549999999999941e-01 1.057549999999999990e+01 1.125130000000000052e+01 7.506120000000000125e+00 2.581240000000000201e+00 1.972580000000000000e+00 2.916859999999999786e+00 3.506179999999999852e-01 9.868750000000000355e+00 9.730669999999999931e+00 8.984529999999999461e+00 9.735269999999999868e+00 9.607179999999999609e+00 1.090279999999999916e+01 6.399210000000000065e+00 9.291280000000000427e+00 4.337170000000000414e+00 5.165689999999999449e-01 2.786179999999999879e+00 1.104340000000000011e+01 6.135979999999999990e+00 1.040869999999999962e+01 3.456869999999999887e+00 7.729709999999999859e+00
7.272879999999999789e+00 1.190279999999999916e+01 6.453560000000000407e+00 4.360780000000000101e+00 6.842459999999999987e+00 1.573220000000000063e+00 9.687010000000000787e+00 6.759859999999999758e+00 6.578739999999999810e+00 1.024530000000000030e+01 5.402150000000000007e-01 2.213350000000000151e+00 7.381700000000000372e+00 1.141629999999999967e+01 1.173620000000000019e+01 1.091060000000000052e+01 9.831020000000000536e+00 1.232390000000000096e+00 1.115709999999999980e+01 8.857929999999999637e+00 1.068180000000000085e+01 1.107939999999999969e+01 6.009319999999999773e+00 2.525889999999999969e+00 5.547489999999999810e+00 6.575820000000000221e+00 8.432650000000000645e+00 1.115489999999999959e+01 5.872539999999999871e+00 1.202149999999999963e+01 3.146640000000000104e+00 7.812210000000000543e-01 1.174610000000000021e+01 3.150949999999999918e+00 1.011190000000000033e+01 9.771269999999999456e+00 6.416190000000000282e+00 2.563029999999999919e+00 1.029010000000000069e+01 5.721919999999999895e+00 8.801050000000000040e+00 1.075890000000000057e+01 7.358369999999999633e-01 8.038169999999999149e+00 6.124010000000000176e+00 8.871180000000000732e+00 1.496969999999999912e+00 2.805200000000000055e-02 3.590090000000000225e-01 1.045960000000000001e+01 9.048510000000000275e+00 1.672029999999999905e+00 5.544640000000000235e+00 3.624820000000000153e+00 2.482029999999999959e+00 8.385369999999999990e+00 4.776049999999999685e+00 8.341910000000000380e+00 6.292300000000000004e+00 1.467640000000000056e+00 1.132049999999999912e+01 1.147579999999999956e+01 4.543120000000000047e+00 1.712329999999999908e+00 1.014080000000000048e+01 2.931000000000000050e+00 1.164649999999999963e+00 5.643010000000000304e+00 6.455230000000000246e+00 2.865740000000000176e+00 2.983509999999999884e+00 5.336409999999999876e+00 8.628670000000000506e-01 1.934590000000000032e+00 4.113450000000000273e+00 1.003720000000000034e+01 1.167970000000000041e+01 1.053860000000000063e+01 4.127369999999999983e+00 1.147560000000000002e+01 8.236869999999999692e+00 6.395859999999999879e+00 2.831240000000000201e+00 6.809479999999999977e-01 9.155350000000000321e+00 9.683640000000000470e+00 5.908000000000000362e+00 1.538950000000000040e+00 4.353130000000000055e-01 1.596799999999999997e+00 5.435480000000000089e+00 1.016310000000000002e+01 3.793779999999999930e+00 6.091969999999999885e-01 1.900730000000000031e+00 1.215799999999999947e+01 8.936980000000000146e+00 8.545040000000000191e+00 1.215889999999999915e+01 2.368479999999999919e+00 6.224990000000000023e+00 1.020809999999999995e+01 1.135640000000000072e+01 7.647910000000000430e+00 8.103089999999999904e+00 1.119899999999999984e+01 8.040440000000000254e+00 4.227750000000000341e+00 1.015339999999999954e+01 1.464590000000000058e+00 7.875390000000000335e+00 4.781469999999999665e+00 5.572460000000000191e-01 1.196250000000000036e+00 7.768729999999999691e+00 3.301390000000000047e+00 8.560950000000000060e+00 1.133050000000000068e+01 3.592699999999999783e+00 1.820599999999999996e+00 9.808649999999999869e-01 3.309000000000000136e-02 5.985579999999999679e+00 3.790880000000000027e+00 -1.902840000000000087e-01 5.645489999999999675e+00 5.760180000000000078e+00 8.539300000000000779e+00 6.107590000000000074e+00 6.088560000000000194e+00 1.986799999999999899e+00 5.187400000000000233e+00 6.791009999999999991e+00 7.435839999999999783e+00 3.562199999999999811e+00 7.592159999999999798e+00 1.153110000000000035e+01 3.250109999999999832e+00 9.375769999999999271e+00 5.027820000000000178e+00 5.211350000000000371e+00 1.063119999999999976e+01 3.496340000000000003e+00 1.123329999999999984e+01 2.771760000000000002e+00 8.328179999999999694e+00 7.675130000000000230e+00 2.003319999999999990e+00 3.975709999999999855e+00 7.288860000000000339e-01 3.835150000000000059e+00 9.121040000000000703e+00 1.316000000000000059e+00 4.167440000000000033e+00 5.420989999999999753e+00 6.182990000000000208e+00 5.767529999999999824e+00 6.367180000000000284e+00 1.182039999999999935e+01 6.752609999999999779e+00 1.192740000000000045e+01 9.451980000000000715e+00 8.146969999999999601e+00 7.609919999999999796e+00 8.715170000000000528e+00 5.693890000000000340e-01 1.271470000000000100e+00 9.549360000000000070e+00 9.008449999999999847e+00 5.985529999999999795e+00 1.122979999999999912e+01 4.670980000000000132e-01 1.073840000000000039e+01 1.182230000000000025e+01 1.007540000000000102e+00 7.564460000000000406e+00 4.972380000000000133e-01 7.077350000000000030e+00 4.465550000000000352e+00 3.590190000000000214e+00 1.211790000000000056e+01 3.755780000000000118e+00 8.316739999999999355e+00 9.913159999999999528e+00 1.792829999999999924e+00 4.863240000000000229e+00 3.979499999999999815e+00 2.610829999999999984e+00 2.816959999999999908e+00 3.795999999999999819e+00 2.507709999999999884e+00 9.379110000000000724e+00
4.837740000000000151e+00 1.001040000000000063e+01 2.679619999999999891e+00 8.568489999999999718e-01 7.497600000000000264e+00 7.866729999999999556e+00 1.185749999999999993e+01 2.502530000000000143e+00 3.344030000000000058e+00 3.156839999999999868e+00 7.214649999999999785e+00 3.106380000000000141e+00 4.072689999999999699e+00 5.844549999999999912e+00 5.268819999999999837e+00 4.393089999999999939e+00 1.032700000000000007e-01 5.811320000000000263e+00 2.104610000000000092e+00 2.937829999999999941e+00 6.128689999999999749e+00 9.111150000000000304e+00 2.261760000000000215e+00 4.213409999999999656e+00 6.631610000000000227e+00 5.312059999999999782e+00 7.871629999999999683e+00 1.997900000000000023e-02 9.377639999999999532e+00 3.187580000000000080e+00 1.195539999999999914e+01 4.651360000000000383e+00 1.527849999999999930e+00 1.139429999999999943e+01 6.184140000000000192e+00 9.312269999999999825e+00 6.529090000000000060e+00 7.860240000000000116e+00 7.263460000000000250e+00 6.123720000000000274e-01 8.236750000000000682e+00 1.140559999999999974e+01 2.589020000000000099e+00 2.427119999999999944e+00 1.028899999999999970e+01 9.192810000000000148e-01 4.716610000000000191e+00 7.509159999999999613e+00 4.290790000000000326e+00 2.510530000000000150e+00 4.608060000000000045e+00 1.784030000000000060e-01 2.233699999999999797e+00 5.907670000000000421e-01 5.212710000000000399e+00 4.896950000000000358e+00 2.694570000000000021e-01 1.061359999999999992e+01 5.989939999999999820e+00 1.164170000000000016e+01 7.217850000000000321e+00 1.013620000000000054e+01 8.766469999999999541e-01 5.893970000000000375e+00 3.125189999999999912e-01 1.809299999999999908e+00 1.055100000000000016e+01 8.785360000000000724e+00 2.436810000000000087e-01 5.395050000000000345e+00 1.765759999999999996e+00 1.079829999999999934e+01 3.042660000000000142e+00 8.131850000000000023e+00 6.132990000000000386e+00 5.502629999999999910e+00 2.592130000000000045e+00 1.819250000000000034e+00 1.020350000000000001e+01 8.834659999999999513e+00 6.333529999999999660e+00 7.636370000000000324e+00 3.590990000000000126e+00 8.153930000000000344e-01 1.540589999999999904e+00 5.024000000000000021e+00 1.036449999999999960e+01 6.099339999999999762e+00 9.064140000000000086e+00 5.167659999999999698e+00 8.233890000000000597e+00 9.731939999999999813e+00 9.211240000000000094e+00 1.065419999999999945e+01 1.181240000000000023e+01 2.645239999999999814e+00 5.901500000000000412e+00 7.535289999999999822e+00 2.540820000000000078e+00 9.141410000000000480e+00 7.261549999999999727e+00 8.361530000000000129e+00 9.148030000000000328e+00 4.742210000000000036e+00 2.720559999999999867e+00 2.541360000000000063e+00 1.909229999999999983e+00 8.419830000000000370e-01 1.002020000000000088e+01 1.184709999999999930e+01 5.201660000000000394e+00 4.154770000000000074e+00 1.051539999999999964e+01 1.169469999999999921e+01 1.059769999999999968e+01 4.186779999999999724e+00 9.547810000000000130e+00 2.142860000000000209e+00 1.034849999999999959e+01 1.500869999999999926e+00 7.458029999999999937e+00 2.970489999999999853e+00 8.457670000000000243e+00 4.319919999999999760e+00 9.310420000000000584e+00 8.202650000000000219e+00 9.532890000000000086e+00 4.430629999999999846e+00 6.339269999999999960e+00 1.393629999999999924e+00 1.047460000000000058e+01 8.859149999999999636e+00 5.106429999999999580e-01 1.563509999999999955e+00 7.593069999999999986e+00 3.317540000000000155e+00 6.896869999999999834e+00 3.970920000000000005e-01 6.198360000000000092e+00 8.167540000000000688e+00 1.072359999999999935e+01 6.554540000000000255e+00 4.266969999999999708e+00 4.134500000000000064e+00 4.723309999999999675e+00 1.534400000000000000e-02 8.895089999999999719e+00 5.566010000000000124e-01 7.932449999999999779e-01 1.067130000000000045e+01 7.210110000000000241e+00 1.196589999999999954e+01 1.083109999999999928e+01 8.587920000000000442e+00 7.417180000000000106e+00 4.636050000000000004e+00 1.949680000000000080e+00 1.570799999999999974e-01 3.881580000000000030e+00 7.766740000000000421e+00 5.662779999999999703e+00 1.078410000000000046e+01 9.122989999999999711e+00 6.525879999999999459e-01 8.295320000000000249e+00 4.285919999999999952e+00 3.252660000000000107e+00 7.726849999999999774e+00 9.615880000000000649e+00 1.238329999999999931e+00 2.256019999999999970e-01 1.054759999999999920e+01 1.039470000000000027e+01 1.022499999999999964e+01 9.094279999999999475e+00 9.665449999999999875e+00 3.275640000000000107e+00 1.136340000000000039e+01 6.142579999999999707e+00 5.521919999999999717e+00 6.902199999999999669e+00 1.709880000000000011e-01 4.797250000000000014e+00 1.391140000000000043e+00 4.793470000000000120e+00 3.500579999999999803e+00 3.665179999999999882e+00 6.018970000000000375e+00 8.728709999999999525e+00 4.315930000000000044e-01 9.748210000000000264e+00 5.712310000000000443e+00
1.344330000000000025e+00 1.983400000000000052e+00 1.819620000000000015e+00 3.060579999999999856e+00 5.223200000000000287e+00 5.329830000000000290e+00 8.645580000000000487e-01 4.656520000000000437e+00 3.453279999999999905e+00 4.872130000000000294e+00 2.448339999999999961e+00 6.083020000000000316e+00 7.195229999999999571e+00 1.271050000000000013e+00 2.321689999999999809e+00 1.164899999999999913e+01 4.288199999999999790e+00 6.293840000000000545e-01 7.531189999999999607e+00 4.148380000000000400e+00 2.987740000000000062e+00 1.084970000000000034e+01 2.969269999999999854e+00 2.439740000000000020e+00 8.205029999999999824e-01 8.121130000000000848e+00 1.570729999999999960e+00 3.595000000000000195e+00 1.135079999999999978e-01 1.292640000000000011e+00 4.811509999999999954e-01 1.020620000000000083e+01 4.769870000000000054e+00 3.756110000000000060e+00 7.443810000000000038e+00 3.596649999999999903e+00 7.718280000000000030e+00 8.357960000000000278e+00 9.744909999999999961e-01 9.755940000000000722e+00 6.621350000000000291e-01 3.170889999999999986e+00 6.351140000000000008e+00 1.135420000000000051e+01 4.659950000000000259e+00 1.080310000000000059e+01 6.054560000000000386e+00 3.972449999999999815e+00 4.079860000000000153e-01 7.172340000000000382e-01 9.198919999999999320e+00 4.143030000000000435e+00 2.985090000000000021e+00 9.546599999999999753e+00 6.555569999999999453e-01 2.641509999999999803e+00 1.076510000000000034e+01 2.625809999999999977e+00 1.110009999999999941e+00 1.078490000000000038e+01 7.738129999999999953e+00 4.306729999999999947e+00 8.636269999999999669e+00 7.482739999999999947e-01 3.048649999999999860e+00 7.421470000000000233e+00 6.729219999999999757e+00 4.238979999999999748e+00 1.091750000000000043e+01 9.875069999999999126e+00 2.921980000000000022e+00 8.399490000000000123e+00 1.912900000000000045e+00 7.856410000000000338e+00 7.966969999999999885e+00 5.018189999999999706e+00 9.045159999999999201e+00 5.942179999999999573e+00 2.919109999999999872e+00 1.074269999999999925e+01 1.086330000000000062e+01 6.527680000000000149e+00 7.291140000000000398e+00 1.073010000000000019e+01 7.729599999999999582e+00 6.401349999999999874e+00 6.531609999999999694e+00 9.754400000000000404e+00 2.165839999999999987e-01 9.250479999999999592e+00 8.801420000000000243e+00 1.010469999999999935e+01 9.949120000000000630e+00 4.028070000000000261e-01 6.215099999999999625e+00 1.017489999999999917e+01 4.454320000000000057e+00 2.486289999999999889e+00 2.671910000000000007e+00 2.333839999999999915e+00 5.529700000000000060e+00 1.815770000000000106e+00 5.730719999999999814e+00 4.815360000000000085e+00 5.391200000000000436e+00 2.363420000000000076e+00 3.086939999999999795e+00 4.621540000000000425e+00 8.640439999999999898e+00 2.230100000000000193e+00 6.050320000000000142e-01 5.766490000000000116e+00 5.803919999999999746e+00 1.345099999999999962e+00 9.643190000000000595e+00 5.386029999999999873e+00 1.837639999999999940e+00 7.435489999999999711e+00 1.618489999999999984e+00 6.403789999999999871e+00 4.142509999999999692e+00 8.922929999999999140e+00 1.651620000000000088e+00 9.926979999999999693e-01 1.086110000000000042e+01 2.228060000000000151e+00 3.267440000000000122e+00 1.114310000000000045e+01 3.999470000000000081e+00 1.275069999999999926e+00 7.660379999999999967e+00 5.367469999999999963e+00 1.000500000000000078e+01 9.277219999999999800e+00 3.151920000000000055e+00 6.419400000000000439e+00 1.105589999999999939e+01 1.601599999999999913e+00 9.670310000000000628e+00 8.986359999999999459e+00 6.040479999999999627e+00 7.221560000000000201e+00 7.995870000000000033e+00 4.188100000000000378e+00 5.343569999999999709e+00 5.431340000000000057e-01 7.842920000000000336e+00 2.587919999999999998e+00 5.065590000000000259e+00 8.577650000000000219e+00 2.674830000000000041e+00 4.319280000000000008e+00 1.125970000000000049e+01 1.162020000000000053e+01 1.122799999999999976e+01 1.174709999999999965e+01 1.173869999999999969e+01 8.937469999999999581e-01 4.959419999999999717e+00 9.459780000000000300e+00 3.738890000000000047e+00 4.953339999999999854e+00 1.094149999999999956e+01 5.885600000000000165e+00 6.929940000000000211e+00 6.951660000000000394e+00 1.240199999999999969e+00 1.052379999999999960e+01 5.782939999999999969e+00 6.831249999999999822e+00 8.372220000000000439e+00 3.354859999999999953e+00 9.823579999999999757e+00 7.784930000000000128e+00 5.744510000000000005e+00 9.838290000000000646e+00 1.060500000000000043e+01 2.657280000000000086e+00 7.682059999999999889e+00 1.090419999999999945e+01 1.144209999999999994e+01 8.541119999999999379e+00 9.305870000000000530e+00 7.697350000000000136e+00 1.048910000000000053e+01 7.383399999999999963e+00 1.073349999999999937e+01 7.849920000000000009e+00 6.011330000000000284e-01 9.708980000000000388e+00 5.278719999999999857e+00 1.019500000000000028e+01
8.109959999999999170e+00 3.403589999999999893e+00 7.906299999999999883e+00 1.110619999999999941e+01 3.793410000000000171e+00 6.056879999999999598e+00 1.221999999999999975e+00 2.231669999999999821e+00 3.788229999999999986e+00 1.143859999999999921e+01 1.132799999999999940e+01 3.130539999999999878e+00 1.072799999999999976e+01 6.915320000000000356e+00 5.138300000000000090e+00 4.444749999999999979e+00 4.262880000000000003e+00 -6.239299999999999707e-02 9.127319999999999878e-01 7.014000000000000234e+00 1.473190000000000000e+00 9.596809999999999619e+00 5.834570000000000256e+00 1.581560000000000077e+00 1.393809999999999993e+00 5.614709999999999646e+00 7.022689999999999877e+00 7.492359999999999687e+00 3.670100000000000140e+00 1.163289999999999935e+00 5.586719999999999686e+00 9.537599999999999412e+00 8.560200000000000031e+00 8.702249999999999375e+00 9.218700000000000117e+00 6.672229999999999883e+00 9.152369999999999450e+00 5.722660000000000302e+00 7.080409999999999648e+00 6.117680000000000007e+00 9.131410000000000693e+00 2.304050000000000153e+00 2.601049999999999751e-01 9.343560000000000088e+00 9.582969999999999544e+00 4.935830000000000162e+00 9.063400000000000345e-01 9.462059999999999249e+00 1.213980000000000059e-01 9.312530000000000641e+00 4.350990000000000357e+00 4.520870000000000388e+00 4.850819999999999688e+00 7.429770000000000429e+00 4.249600000000000044e+00 2.339560000000000084e+00 7.000210000000000043e+00 8.448460000000000747e+00 1.039289999999999914e+01 1.116940000000000044e+00 1.425319999999999920e+00 2.514540000000000219e+00 7.177950000000000053e+00 1.017079999999999984e+01 8.272280000000000300e+00 5.507999999999999563e-01 5.768640000000000434e+00 1.159699999999999953e+01 2.337950000000000195e+00 3.456080000000000041e+00 1.078640000000000043e+01 1.007339999999999947e+01 3.064680000000000071e+00 4.001459999999999795e+00 4.611040000000000028e+00 5.008049999999999891e+00 4.415840000000000209e+00 2.650760000000000005e+00 9.183239999999999625e+00 1.168159999999999954e+01 6.646490000000000009e+00 7.138600000000000279e+00 1.167830000000000013e+01 8.912319999999999354e+00 1.135940000000000083e+01 1.000179999999999936e+01 6.605699999999999683e+00 6.164480000000000182e+00 1.185910000000000020e+00 7.720310000000000228e-01 7.263930000000000220e+00 7.322250000000000369e+00 8.025829999999999131e+00 7.156830000000000247e+00 1.168379999999999974e+01 4.454180000000000028e+00 7.696749999999999758e+00 6.032759999999999678e+00 3.607340000000000213e+00 1.138339999999999996e+01 5.281550000000000189e+00 1.146330000000000027e+01 4.649339999999999584e+00 7.225900000000000212e+00 7.053180000000000227e+00 8.386210000000000164e+00 1.510899999999999910e+00 2.664410000000000167e+00 1.153250000000000064e+01 4.496349999999999625e+00 3.551460000000000061e+00 2.260269999999999779e+00 7.337600000000000122e+00 1.080560000000000009e+01 3.902660000000000018e+00 7.185599999999999987e+00 1.587010000000000032e+00 9.068350000000000577e+00 4.080650000000000333e+00 1.035159999999999947e+01 1.360889999999999933e+00 1.203780000000000072e+01 9.211579999999999657e+00 3.385089999999999932e+00 2.677010000000000223e-01 4.834249999999999936e-01 1.075710000000000000e-01 1.074830000000000041e+01 1.367069999999999952e-01 5.892610000000000348e+00 3.778890000000000082e+00 9.881510000000000460e+00 1.955230000000000024e+00 3.156719999999999970e+00 1.103560000000000052e+01 8.352230000000000487e+00 2.271860000000000213e+00 5.415060000000000429e+00 1.153229999999999933e+01 1.386030000000000095e+00 7.429829999999999490e-01 1.044149999999999956e+01 2.197080000000000144e+00 8.987379999999999924e+00 1.008290000000000042e+01 1.116479999999999961e+01 9.480370000000000630e+00 5.234230000000000160e+00 9.590759999999999508e+00 1.126909999999999989e+01 2.938700000000000201e-01 4.262380000000000058e-01 5.879229999999999734e+00 9.789500000000000313e+00 7.001360000000000028e+00 9.271290000000000475e+00 2.981269999999999865e+00 7.170350000000000001e+00 4.015159999999999840e+00 8.661830000000000140e+00 9.396860000000000213e+00 4.218539999999999957e+00 4.473709999999999631e+00 1.836600000000000010e+00 3.989869999999999806e+00 2.594650000000000123e+00 9.645599999999999952e+00 9.554369999999999807e-01 3.172989999999999977e+00 3.901720000000000077e+00 9.024699999999999278e+00 1.488760000000000083e+00 8.327439999999999287e+00 6.722470000000000390e+00 2.940819999999999990e+00 1.098380000000000045e+01 4.292790000000000106e+00 8.853239999999999554e+00 1.257379999999999942e+00 1.179190000000000005e+01 7.933959999999999901e+00 8.957409999999999428e+00 1.066039999999999921e+01 5.046050000000000146e+00 1.124349999999999916e+01 6.906200000000000117e+00 6.810100000000000264e+00 6.475530000000000008e+00 1.142140000000000022e+01 2.319830000000000059e+00 3.730579999999999785e+00 1.684660000000000046e+00