-1.049326091632693897e+04
-1.049558722448899061e+04
-1.049498510859347334e+04
-1.049784409038111153e+04
-1.049357032645068284e+04
-1.049184501515064039e+04
-1.049773796909492012e+04
-1.049847979580290848e+04
-1.049545028463394556e+04
-1.049425213637839079e+04
-1.049061712223514769e+04
-1.049221949173382200e+04
-1.049531908557533825e+04
-1.049428548708457674e+04
-1.049164148509526967e+04
-1.049369004206121645e+04
-1.049373500668870838e+04
-1.049539446376503474e+04
-1.050083560232588570e+04
-1.049627459575927787e+04
-1.049791886494492792e+04
-1.049323399710922240e+04
-1.049519446346018231e+04
-1.049747109051854022e+04
-1.049532264295175810e+04
-1.049621672898041470e+04
-1.049184210907927263e+04
-1.049461194175250967e+04
-1.049759489826284334e+04
-1.049596395523163665e+04
-1.050222873777328277e+04
-1.049115421157710807e+04
-1.049325764365128452e+04
-1.049194446970735771e+04
-1.049581785783069245e+04
-1.049547995526914383e+04
-1.049573690183155486e+04
-1.049633761652200883e+04
-1.049024084407189002e+04
-1.049162674526589217e+04
-1.049629913477786977e+04
-1.049512867284896856e+04
-1.049282813022025584e+04
-1.049132997835000424e+04
-1.049810208506081835e+04
-1.049338728514604918e+04
-1.049342749407110023e+04
-1.049232177877601316e+04
-1.049650232405890347e+04
-1.049615590712048652e+04
-1.049273986628288367e+04
-1.049761293514638601e+04
-1.049320838369063131e+04
-1.050025773899265550e+04
-1.049871109039163639e+04
-1.049624393197465179e+04
-1.049085568605854314e+04
-1.049347389697709514e+04
-1.049632785362912000e+04
-1.049670283554065645e+04
-1.049660239404240201e+04
-1.049466660230473099e+04
-1.049598271068080066e+04
-1.049174863332687528e+04
-1.049203629478370567e+04
-1.049557102818115709e+04
-1.049806257400590766e+04
-1.049062216634270408e+04
-1.049778649371263418e+04
-1.049523342949899597e+04
-1.049320742162385250e+04
-1.049344009625069884e+04
-1.049626759291923008e+04
-1.049600669517323695e+04
-1.049572476306742101e+04
-1.049609071689953635e+04
-1.049712187694743261e+04
-1.049337963315992056e+04
-1.050237758912107529e+04
-1.049885722181917845e+04
-1.049400130132839331e+04
-1.049740122899056041e+04
-1.049032419365103306e+04
-1.049450261408365259e+04
-1.049247727829860196e+04
-1.049467243098993822e+04
-1.049758392732709399e+04
-1.049012030032495568e+04
-1.049612812330737688e+04
-1.049603893413662627e+04
-1.049671181586270177e+04
-1.049396755723755996e+04
-1.049628553344109969e+04
-1.050061573630125349e+04
-1.049570199027973467e+04
-1.049376929411483798e+04
-1.049313914481220672e+04
-1.049633666867870670e+04
-1.049358196810617119e+04
-1.049672104035671691e+04
-1.049293788013773519e+04
-1.049420143818317229e+04
-1.049799638136621070e+04
-1.049341374689054101e+04
-1.049444366991896277e+04
-1.049582642586487236e+04
-1.049543158466814202e+04
-1.049577933793829288e+04
-1.049728525978176913e+04
-1.049616101789782624e+04
-1.049204180356406323e+04
-1.049174701193976762e+04
-1.049606852155654269e+04
-1.049086564885942244e+04
-1.049405370344442599e+04
-1.049484594109629506e+04
-1.049730073515044751e+04
-1.049139263379488330e+04
-1.049557006480348173e+04
-1.049156198599078562e+04
-1.049813101618221845e+04
-1.049398990349142514e+04
-1.049618542076571248e+04
-1.049629535020413459e+04
-1.049528569594545661e+04
-1.049265161057437763e+04
-1.049778531504854436e+04
-1.049349863369212289e+04
-1.049153521961819570e+04
-1.049719791326394261e+04
-1.049437865076342678e+04
-1.050065316789648932e+04
-1.049807679241848746e+04
-1.049585416804046145e+04
-1.049174300582082105e+04
-1.048992007970895611e+04
-1.049950091506273566e+04
-1.049911114572149381e+04
-1.049321359886963546e+04
-1.049400053406863299e+04
-1.049391089452221968e+04
-1.049661873212889259e+04
-1.049424182241958806e+04
-1.049340283816202282e+04
-1.049663223681281306e+04
-1.049563632783150024e+04
-1.049185214059328246e+04
-1.049177190308336139e+04
-1.049599569133325531e+04
-1.049286158001714830e+04
-1.049505225497371430e+04
-1.049134977359046752e+04
-1.050235990415460947e+04
-1.049571210134109970e+04
-1.049233801600989136e+04
-1.050060590325252815e+04
-1.049615355937016648e+04
-1.049089695508192381e+04
-1.049522061296524225e+04
-1.049379671500159384e+04
-1.049627173550778025e+04
-1.049510022007920816e+04
-1.049290631327216033e+04
-1.049241019616755148e+04
-1.049616008675533521e+04
-1.049678513699273390e+04
-1.049593364728281085e+04
-1.049300770093944811e+04
-1.049402946679312845e+04
-1.050687322033101918e+04
-1.049463338326856501e+04
-1.049430736909195002e+04
-1.049304786877953120e+04
-1.049579633178845688e+04
-1.048894256741458958e+04
-1.049692260873169835e+04
-1.050018031769413392e+04
-1.049708868054484628e+04
-1.049814032682630204e+04
-1.050069398596465362e+04
-1.049384644528434910e+04
-1.049448243312401610e+04
-1.049032519775967012e+04
-1.049405179517583747e+04
-1.049617404517000796e+04
-1.049616562664673984e+04
-1.048950694233459944e+04
-1.049631852947947118e+04
-1.049748313800246251e+04
-1.049018367318307719e+04
-1.049383223309820642e+04
-1.049461435316014649e+04
-1.049275245716026257e+04
-1.049084801989607149e+04
-1.049631266402246365e+04
-1.049537172137612106e+04
-1.049588234026534519e+04
-1.049559371737569927e+04
-1.050031439164725271e+04
-1.049402655097750903e+04
