4.956315560155328814e-01 -9.994083668396833153e-02 1.029883652586698339e+00 -1.758525031956934326e+00 -1.167711236984639411e+00 -9.246088052884756658e-01 -1.360201502990261213e+00 3.214840541688882558e-01 -9.197319368159423414e-01 3.884180969352086232e-01 9.516691518193273192e-01 6.313400371895903085e-01 -1.160169162977190277e-01 8.908023982882898872e-01 -2.247540111102361293e-01 -9.075870739327397407e-01 1.163659178405604955e+00 2.147549909237734256e-01 1.552111213902516162e+00 9.025651952420226110e-01 1.909223044549628323e+00 -1.133295992756334636e-01 7.691002586847579536e-01 -2.400176221256524745e-01 4.632125162800976304e-01 2.741245910851588974e+00 -1.752517906535579151e+00 -5.246027464143658559e-02 -1.197023869883025338e+00 -6.368704800852141856e-01 -1.477846441808439826e+00 -2.941069477288125733e-01 9.483262034916238870e-01 -3.822443640291314781e-01 -3.054239668167883170e+00 1.004787114648909130e+00 6.011912815438044122e-01 2.052640207215856438e-01 -4.885368539577994995e-01 1.025217100352594640e-01 -1.334196851416612206e-02 9.718924208290061206e-02 1.823997145466884628e+00 -2.178224712589909906e+00 1.208640628177310772e+00 -3.639494223889170876e-01 -2.246208279665850849e-01 -5.574681296582530976e-01 2.985256456183612017e-01 5.822047131537422260e-01 -7.745335138809609221e-01 3.578893322424803181e-01 -4.180027525478471340e-01 2.980762167861180645e-01 -8.276874721547726743e-01 1.446343229018342447e+00 -1.152673368826608424e+00 2.053236703148810793e-01 2.631575505592251285e-01 -4.395964195414253095e-01 2.064523846018075925e-01 8.406900550519130766e-01 5.441225615996639897e-01 2.160491814100315544e+00 -6.461120532809513373e-01 -5.273903364596634891e-01 5.160461151002625202e-02 2.250308674984280444e+00 1.078556692274507123e+00 -2.401319333721143146e+00 3.726052982849687445e-01 -1.542393986622311086e+00 -8.826046929752228154e-01 -8.004224658124419189e-01 7.188393056857744767e-02 -8.193637827869008072e-01 -5.973685653665783413e-01 -1.100938659496722316e+00 -2.858233675702254173e-01 4.691625632113169408e-01 3.510162592770774137e-01 -1.013292323899826763e-01 1.987113072098297406e-01 -3.946987877327120531e-01 7.237465131755873582e-01 1.649568364934614340e-02 -1.234299209265719899e+00 -1.751918839499465030e-01 -4.524452504696403476e-01 6.320517185440807095e-01 1.097589540521436646e+00 -7.478048396576569834e-01 6.433095508373297688e-01 3.044870054034813922e-01 3.867576785149418050e-01 7.224799877593231657e-04 -5.764510985038923119e-01 5.997699757173513557e-01 -7.184053034724869891e-01 2.097999609151977307e-01 -5.430339565220223541e-01 -8.005062837754346461e-01 -1.515014309079076193e+00 -3.674468425944303895e+00 1.982731912314874279e-01 2.054064598366101002e+00 -1.617018198938055540e-01 1.753771576436046642e+00 -3.545911211097484139e-02 -1.093023775531176467e+00 9.591068390385094622e-01 -6.453314663617920610e-02 1.409493664318825612e+00 -3.947291267499916101e-01 -7.119425785713060506e-01 7.008184436423400276e-01 -7.381081812027262545e-01 5.005989273192731903e-02 -2.059299364398407134e-02 1.905614244155254544e-01 -1.991893267092041730e+00 -1.429101925452803235e+00 -2.003845297238297629e+00 -5.304041835829783613e-01 3.454421076277456315e-01 5.186742967496844603e-01 3.801838819572797568e-01 -6.087498106114730412e-02 4.055884380535513811e-01 -5.888150193762661244e-01 6.293181216651280163e-01 1.464906079607754208e+00 -4.446985166507120835e-01 1.201274417625956881e+00 2.466464402909232523e-01 3.929982601031604128e-01 4.148906892838475358e-01 1.893385049088427419e+00 3.519922500363423246e-01 1.999305243279630717e-01 4.840513073861094084e-02 -9.587535694644236939e-01 1.916289464472609450e-01 3.700511644065341832e-01 2.074200449868364160e+00 -1.409417045444678884e-01 -2.523830342378586611e+00 2.478718280566389043e-01 2.287748564969168896e+00 9.854894427765733544e-01 2.007913296656919921e-01 -5.936939447313269724e-01 -2.539530012489817773e-02 1.687557956774958123e+00 -6.431763676936786966e-01 2.378588210689897231e+00 7.232837146069160950e-01 -7.524281973586848249e-01 4.654637742063683081e-01 9.278257695613743028e-01 -8.337748159946979376e-01 -9.642701284029874254e-01 -2.273024885617202506e-01 -1.816658188609019176e+00 -2.799724109547649942e+00 4.058702309598090086e-01 6.312572476678612876e-02 -1.353557258206034564e-01 -9.993888264556728407e-01 -5.525763487873958796e-02 -1.408630287877937481e-01 1.541983124337457378e-01 5.639498807228127131e-01 -1.870571650756084114e+00 -6.113311981833959713e-02 -7.166950056509301115e-02 7.553294301636229724e-01 7.822257403129122544e-01 -1.645774445112772266e+00 2.761097398344434795e-01 1.633761222711324901e-01 -3.584390340979355938e-01 6.376855197867079550e-01 -4.836404451012555894e-01 2.403240976222393577e-01 1.218715238796656442e+00 -1.076294121494335565e+00 8.310257924967894283e-01 7.436607355855200108e-02 6.526159158326807486e-01 1.336030562189814752e+00 5.225170675315531366e-01
-4.652709414694218837e-01 2.927818011605166637e-01 1.027411794009361223e+00 -6.892443656604987368e-01 4.570896912165742787e-01 -5.182171546079634705e-01 -4.592576454004841935e-01 6.369578975926298847e-01 1.255518523639305828e+00 -2.434510732845627523e-01 2.388677219486934789e+00 4.008262407819220829e-01 -6.117240627461348890e-01 -9.513436501593618422e-01 1.546396680020687198e+00 -5.616795966331633583e-01 -3.659610535007423171e-01 -1.248666533719809263e-01 -4.795277084876619078e-01 -1.399852541692135632e-01 -5.990783489675033380e-01 -5.821728314745671096e-01 1.070122445470785832e+00 -2.925894826442020369e-01 1.119622351934620674e+00 5.290949778542700654e-01 -4.809855239789769810e-01 -9.132100765420979593e-01 1.615368579151057471e+00 1.124410260237842796e-01 -3.701478378853234052e-01 -7.061869070389288350e-01 -1.585222908829063027e+00 -2.366043284155109561e+00 6.944616481913217232e-01 -7.541503222547744079e-01 4.394431817931317985e-01 2.810421441352174352e-02 1.702553658841177153e-01 3.773916639262953066e-02 1.641831915528322972e+00 1.164618714104650232e+00 8.760262684318740334e-01 -4.499209413878534902e-01 2.383170944961008342e-01 -4.281508967175484126e-01 -5.069798911399887587e-01 -2.859066713125862566e-02 -3.298925899410167228e-01 3.080752369725807127e-01 1.231023623840789699e-01 -8.211954366775761072e-01 4.801422021427312892e-01 -6.471523216191983341e-01 -7.526529117748064213e-01 -1.547994363523867711e-01 -1.144259176627529379e-01 3.349484071934363816e-01 -1.361990476568492037e-01 -1.905598817536299089e-02 2.498253522370642576e-01 -5.578507098083549387e-01 -1.835728060741442347e+00 -9.666684534299692100e-01 9.122340857828329375e-01 9.896690280723086097e-02 -2.488781578331833721e-01 3.052300542165150010e-01 1.005381553699336239e+00 2.517441665248392635e+00 7.164985733695606873e-01 4.771869761714480629e-01 1.912844186239166522e-01 3.058712873444409119e-01 7.593444648571637257e-02 5.437734057906328244e-01 -3.101033231446254090e-01 -3.795189946802884351e-01 1.313129232129423840e-01 -3.562227431746312067e-01 3.584061239774967711e-01 -5.859955476517932915e-01 -1.554789789173860237e+00 2.772194279579912046e-01 1.032432130038182683e+00 -6.454008861470927894e-01 -1.439884617882216222e+00 -5.815120579626306130e-01 -2.632223423588391231e-01 7.185575127795167383e-01 5.842220006925179510e-01 -3.208500201298083998e-01 2.748714965529314505e-02 9.286644634119333164e-01 -7.793589602903084890e-01 6.360950353723735518e-01 3.834887779582257239e-01 -2.550410921059915181e-01 4.034019719268946425e-01 1.473190688207604883e-02 -5.658231864846683390e-01 -8.708454955659130636e-01 -1.114530539237970963e+00 2.318276815441265182e+00 4.660566705948996358e-01 1.006322063235002950e+00 6.787835753466284761e-01 8.765435743875223951e-01 1.355367314830171754e-01 1.736060275212990001e-01 9.919187433366837281e-01 1.203152865594131204e-01 -3.166087283582504353e-01 3.307019732155598857e-01 2.885060566066242616e-01 7.072796258816252402e-02 3.895606951791952266e-01 4.101012383187298965e-02 9.641559714227150302e-01 4.229510976882086548e-01 1.941697105892672137e-01 5.548070378883922515e-01 -1.942936377615447907e-01 1.727308240058781086e-01 -4.318954513587323074e-01 1.357707018705121838e-01 -1.449283028370669690e+00 -1.396133698082544727e+00 -2.400870419109531750e-01 4.294189647957081801e-01 -8.829785313745829034e-02 6.023153678450442472e-01 -4.216010114192676461e+00 -3.873230126776056270e+00 -6.034155428869026672e+00 3.568485496836014126e-01 8.776193239493674803e-01 -7.548290934888259862e-01 -4.357397648024964876e-01 2.105280973299074876e-01 5.818241898861679084e-01 -6.498612359078218548e-01 7.074493186901381625e-02 1.021297196475947633e+00 6.583762153507447534e-01 -2.638810589882480961e-01 -3.397661402933062069e-01 1.508553641060422779e-01 9.664961895182971885e-01 4.785517177283969414e-01 -1.544064689455215245e+00 -1.675294823146428469e-01 -9.811329655834795382e-02 -1.167157421364129199e-01 -2.772271412674690572e-01 -5.817326586136973843e-01 -2.956485811831203736e-01 -9.893671805614083770e-01 -1.511700157106756759e+00 -1.633769450241434606e+00 1.065111365413337507e+00 2.487259485261535952e-01 8.468853852245282754e-01 -5.291330301810275027e-03 -8.548835729324345545e-01 -2.145739852613597065e-01 -1.954541308835200608e+00 2.656006127811785245e-01 5.395974200393208187e-02 9.795645926563152639e-02 3.961267784273794224e-01 3.568588340962385030e-02 -1.210142666642965548e+00 3.594931863932427918e-01 -1.625677674378530335e-01 -3.190199089010287148e-01 1.935696151118899144e-01 7.490986187674096852e-01 -4.351561243853385719e-01 3.730938078852330531e-01 5.774851961945571821e-01 4.320641157259814125e-01 -1.360928610963707097e+00 9.105089269850152434e+00 9.206971289419382254e-01 3.942818062223391706e+00 1.270963140317135920e-01 4.236170134064637383e-01 -1.318112030052119854e-01 -1.449510828110582294e-01 -1.460190676413624100e+00 -4.011692259433708441e-01
5.720503983364587652e-01 -4.226430795297262399e-01 -4.135496018759641235e-01 -7.635302208004809965e-02 -3.645964662099828946e+00 2.300718237745869921e+00 -1.383081750004745869e+00 4.010989319829959321e+00 1.732228303064390351e+00 -9.387457588994931046e-02 -1.865494750457758200e-01 -4.152336744452962969e-01 3.344059044268271053e-01 -1.104439473558405771e+00 2.500586027156746383e+00 1.573859661306283297e-01 2.591044635389268547e-01 1.439290693052421188e+00 3.525213830665233083e-01 -4.153190350701845279e-01 -5.503739418211516243e-01 -3.471724600539450312e-01 5.815526813925473437e-01 -3.826526552108260315e-01 -2.542610194074642060e-01 2.631251546594181034e-01 4.044525246777788685e-01 5.314892919603233956e+00 8.937895059387481744e-01 1.825214819923122400e+00 -1.241727126292896610e+00 2.585141382535548552e-02 -2.861944291781735483e+00 -1.217571612111405965e+00 -1.175426603345024246e+00 1.785785924534210256e+00 -2.285369780326197642e+00 -1.023088741157337722e+00 2.514716295899550147e+00 -1.371236163529284124e-01 5.976081921810237896e-01 -5.386970197129389293e-01 -2.376713876486777455e+00 4.106653383518772404e-01 5.324656940960937890e-01 -4.150788940351073097e-02 -8.308365593042660313e-02 5.032111681291076000e-01 5.287792463863096870e-01 9.042466967081955187e-02 -4.996774439469851004e-01 1.325995032338490309e-01 1.412754337345431821e-01 7.504330213070790900e-02 2.479754435139581048e+00 2.386081433737319568e-01 -2.205987998724510568e+00 -1.084357615222487775e-01 -3.059072827886708534e-01 1.482744907547511426e+00 -1.786155649168515769e+00 -1.133450258945891687e+00 -1.065487774915857111e+00 -3.020886803764995521e-01 -3.601097369308395857e-01 -1.189649431801561956e-02 8.413981368619803947e-01 -1.456897607487210644e+00 -1.564418570505385353e-01 5.015918873593893101e-01 5.997139256684789199e-01 4.515885588969663078e-01 -7.897174206984393097e-01 3.882278353014214645e-01 -1.138973502752669509e+00 -1.580770786598443556e-01 2.884587483084934401e-01 -4.561291270762651839e-02 1.109553397742225389e+00 1.936952392122526456e+00 -6.051713492343789857e-01 8.158531985332118097e-01 -7.020808552935493829e-02 -4.936605483336243827e-01 -8.920442411142248673e-02 -2.028754658866090965e-01 -1.219988449081134685e-01 -8.911289283895190705e-02 -1.210485651804414364e-01 1.649305598191735278e+00 -5.007711912309452673e-01 -6.989960457230381952e-01 -3.036385413609170025e-01 -4.772605097218036718e-01 2.826845648333692340e-01 3.669684117185504496e-02 -1.635644812885817645e+00 2.733301716310027718e+00 1.028060740446764765e+00 -1.448981180859769402e-01 -1.988234073075745983e-02 1.707073658195201737e-01 1.383503410922868548e+00 5.793353620279793059e-01 1.925318150326757793e+00 -8.529387905027508987e-01 1.693539885385352717e+00 -3.377349687974703918e-01 -5.231125350232437299e-01 -7.325895653816352215e-01 6.827153062978082165e-02 2.770756004472608058e+00 -1.565925236956727140e+00 4.883522487509628363e-01 1.758379507518119000e+00 2.136851548991946181e+00 -2.675642671080514567e+00 -6.202950922379302234e-01 -1.628903380402169976e+00 1.342319480517427888e+00 -1.973733051257373777e-02 -2.046664963473676380e-01 1.887895743843352125e+00 1.004111428738649003e+00 1.430356109573902856e-01 -6.243625774359204961e-01 3.667730078784447456e-01 3.660659545096411893e-01 5.128162953115675826e-01 -6.168590699758606799e-02 3.158579662357389739e-01 2.852762368179294072e-01 -1.397065465867469714e-01 4.392431499673393747e-01 -5.051137844669790766e-01 8.887804827638273730e-01 -1.421691491927109530e-01 1.797957012669637589e-01 -5.569112287139518780e-02 -4.424379513310047862e+00 -2.603890380993692855e+00 -2.918001539743013129e-01 -1.974546034076340106e+00 -9.858190582015941006e-01 1.583596428970498682e+00 -5.534505238615530093e-02 1.803418035779960960e+00 1.126134442016459625e+00 9.222217931153947612e-01 -4.157972602578117183e-01 -6.025699070578135474e-01 3.930428430319424127e+00 -6.354435178318105226e-01 -8.995698600614545626e-01 -4.896794522017861584e-01 -4.720586538099365570e-01 3.666105141587778782e-01 -8.370462876545732289e-01 -6.585834462653832322e-01 -4.014397059957277025e-01 3.207605457398652465e-02 -2.429874005408171556e+00 -5.912621953632744010e-01 4.790674810221497437e-01 -7.561974345901978367e-01 6.464941192104211032e-01 -7.023564775522247450e-01 -6.838897862209700751e-01 -4.284634914396542982e+00 -1.813029847830635255e+00 -3.440911471837305058e+00 6.263371846622519667e-01 5.534705784661954064e-01 2.931602675455635132e-01 1.345715393570212637e-01 -2.606826066580965606e-01 -2.128379764082099224e-01 -7.794026690440163385e-01 -6.356476634226578826e-01 -5.195335594255179323e-01 2.201944167675585484e-01 1.254382096042901740e+00 -7.522980995388248715e-01 3.707314783024812654e-01 -5.796809182925872356e-02 -1.064169313215775209e-01 -7.056752575102308578e-01 1.887843807559534515e+00 1.260154222635498256e+00 -2.240510715064873704e-02 -5.244335678264848699e-01 1.475016171450697910e-01
-5.400489057540914795e-01 2.762660629065281093e-01 3.887410274920149456e-01 3.887965633202554727e-01 5.249740137105667337e-01 -3.253011139191640255e-02 -1.773701225464935083e-01 -8.044678395232622847e-01 1.601159634651580510e-01 -3.184815198994743191e-01 2.375596475053752266e-01 2.980448493275747457e-01 4.086917595668093650e-01 -2.605674212365605147e-01 -1.406856226698030045e-02 -2.906786387762208546e-01 7.806743366665991335e-02 5.338535755814763362e-02 3.908544742889478729e-01 3.364149644354930135e-01 -1.001407142435712050e+00 -6.194301731351464779e-02 7.697805725807049804e-01 9.205269219127934499e-02 -7.697821152426005398e-01 1.273652514221749188e+00 -2.908766137194858103e-01 -6.617510453576234131e-01 -3.819054926327375976e-01 -1.304126771527500450e+00 -8.427870467886267036e-01 7.119950290757556810e-02 -1.217697596166211094e+00 3.500984782933387329e+00 7.443636751892687364e+00 -8.068193704727452120e-01 -2.025088265760949802e-01 -1.194107724679763366e-01 3.161659843942214443e-01 7.685731825371043824e-01 2.476537985087314334e-02 -4.116104758732306301e-01 4.060106131923061357e-01 7.848914600684597787e-01 -4.068837598251995868e-01 3.160456567663668670e-01 -2.167697073593898016e-01 -1.185134574653855799e-01 -2.950957940038739097e-02 -1.042777734930517147e-01 -7.240894983370362026e-02 -3.035576030334627085e+00 1.892942305124398317e+00 1.604050068823249298e+00 -5.992624399537082452e-02 -2.730048756592898807e-01 -2.947245267076730180e-01 -3.141152725143749880e-01 7.909284102864629906e-01 1.740513940105505197e+00 7.610825305928409223e-02 -7.246901080350454105e-01 1.122157973870308439e-01 5.882956565380904612e-01 -1.681528719866432819e+00 3.658201570476134479e-01 -4.752766465240986782e-01 -3.939171723722891816e-01 8.024397533512174219e-01 -7.166862639001884139e-01 2.362976986527344891e+00 6.470525628166180487e-01 -2.207178933707891755e-01 1.219474228449277629e-02 -5.188470748819885570e-01 -9.334436299644137680e-01 2.155549639607536427e+00 4.070390544560204549e-01 -4.659476558209459385e-01 -6.456091455029949744e-02 6.387772101881405984e-01 9.308015643579315990e-01 -6.382691602038657042e-01 -5.356230087756967961e-01 4.223144925459694776e-01 -2.594243087719420512e-02 1.801885658297026627e-01 -4.109553587882446291e-01 2.907537149884719674e-01 -8.176678831430357342e-01 -1.205500796999190882e+00 -3.298735637776379903e-01 -6.572505863876094701e-01 1.238529188183376872e+00 7.052623383428496817e-01 -1.252905254388207767e+00 3.468279322306007106e-01 -6.055739839891232101e-01 -1.000030573804230466e-01 -3.129587903133282389e-01 5.067690606809273079e-01 -1.500387817426530879e-01 1.059119666610937927e+00 1.589754221036988324e-01 -9.517102894698760140e-01 3.354658674152742215e+00 5.104051147687894280e-02 1.479079028663001560e+00 4.425547308364995436e-01 1.563107307894149589e-01 1.789641036611243408e+00 8.614722818884206212e-01 2.326776368265232597e-01 -4.269003121408717072e-01 -2.467065526827873168e+00 -8.208684951998412416e+00 6.849331398830083018e-01 -9.814235002404787522e-01 -5.577895175531638605e-01 1.586936291974410940e-01 4.455310398536888733e-02 -1.641108407099300281e+00 4.383062399760956906e-01 -4.907685715000596471e-01 -1.580770786598443722e+00 -3.505915130351633935e-01 -1.304391080932274960e+00 -1.600724089776397463e+00 3.473616932464684837e-01 8.089204759745134699e-02 -1.065873954610381702e+00 1.973054280023322504e-01 -8.270899477805546685e-01 -4.723882692349569701e-01 -5.873170946756661737e-02 -8.677843401444673699e-01 -3.191299521162461184e-01 -4.811469892573801976e-01 6.118166224598691194e-01 2.250224342800655475e-01 4.328117925247017550e-01 -9.440226910236113600e-01 -2.385155836599976709e-01 6.683279272390766357e-01 -2.847753859225005679e-01 1.395196788091300766e+00 -9.403758383024801715e-01 -2.061849898732418529e-01 -1.057035530390020739e+00 -1.477374901489026948e+00 1.805218322212092552e+00 -6.069217562652208242e-01 3.467507991358221853e-01 -9.844332335987387994e-01 -1.183039639799669640e+00 8.417082119029903886e-01 1.864821121430025250e-02 7.463485668282374697e-01 6.254121017455409604e-01 -5.686519141805147504e-01 1.546261439994508873e-03 4.415340028822631324e-01 2.952176642936240047e-01 -2.009615366948367399e-01 -2.649958893181145192e-01 2.215792129291499490e-01 -1.425625279760817099e-01 -5.190337369713525772e-01 -9.054350605884174952e-01 5.007074278725949235e-01 4.031073235048404646e-01 6.040282367697604737e-01 -3.192569646123148974e-01 2.804837005290205521e-01 9.351205034448999143e-02 4.980550778534758027e-01 -2.088324033742952945e+00 1.808587495792020716e+00 8.642156489593785240e-01 -4.622051580622894562e-01 -5.516584649595307477e-01 -3.516549213018439757e-02 -2.874519043113170635e-01 1.194120065974928036e+00 5.495990113289427742e-02 4.100878685823016179e-01 -1.269003959709760210e-01 4.318630554589252685e-02 3.837232625663526964e-01 1.276859194082010429e+00 3.879085042890381141e-01 5.762772919303246200e-01
7.271254569475209539e-01 -9.769688069066999603e-01 -7.798078749019198286e-01 1.039828679606816131e+00 3.747841539462740013e+00 1.713545124847124068e+00 -1.680366067017803777e+00 -8.966989662737958611e-01 1.028852640219825032e+00 -1.931469257525033345e-01 -2.399147779992810425e-01 -7.259643467607874712e-01 -5.646070546903261267e-01 1.512557877120694450e+00 2.770117856668473433e+00 8.925265800669069938e-01 4.696248475593565730e-01 -2.098148733135216215e+00 -1.079712660254921852e+00 -5.013306632784059191e-01 2.229326416321980031e-01 -6.164528356766935113e-01 -1.721406529866956303e+00 1.376642679252630508e+00 1.019701878387673766e+01 9.946749659234380703e-01 5.051754909428018969e+00 1.670718259522899485e-01 2.401009258680133207e-01 3.221607685204123106e-01 -1.620370917457764071e-01 1.997957985224165511e-01 9.174184581932169902e-01 2.139425223254391162e-01 -9.355298230678583682e-01 1.741766067344077129e+00 -2.860645370465664250e-01 -2.396401841818693035e-01 1.729473108918899993e-01 -2.593152939979883054e-01 -3.329429467291934452e-01 -1.169589684952813680e-01 -4.647387231154497811e-01 -3.622535227450521256e-01 -2.923313438870097647e-01 -6.872882703769140900e-01 1.902445102401118859e+00 2.244827597269314357e+00 1.021971339724312422e+00 -2.898173192178600810e-01 -8.865446514565125113e-01 1.502773801158348022e+00 -9.419164433155244875e-01 -2.697966531371330245e-01 -1.108885939362074913e+00 -1.155093805340759970e-02 3.322975998362126537e-01 6.463228837400126769e-01 1.146661101198934496e+00 -3.853322589234337570e-01 -6.366385665802466454e-01 9.861157635061755522e-02 -1.097857963691265981e+00 -3.283818097246203327e-01 1.196992502424482213e-01 1.304947981876576069e-01 -8.115265461367655586e-01 -7.991410279978538034e-01 4.139326962466975957e-01 5.659229452872486243e-01 -4.759836998929022900e-01 -2.112510915382986854e-01 -4.122229126457725434e-01 -1.214429724050758885e+00 9.343903101476629114e-02 6.919738487743966049e-01 -1.967233302470699219e-01 -9.911145022684590966e-01 4.998584496093988472e-02 -1.936441256814460221e+00 -2.306408089037369769e-01 8.009279446935574365e-01 -4.344958650940339978e-02 1.167122968581794762e+00 6.930742809265709736e-01 -2.834497251335727497e-01 2.129799013026024979e-02 -6.846585460655965072e-01 1.214869382690996646e+00 -2.335646674164768566e-01 -3.518122728151923395e-01 -1.112849037771797889e+00 4.637889576084094911e-01 6.355910991531534826e-01 -4.477735560292179229e-01 5.152850685651139129e-01 1.207517056096702790e+00 -8.283734424776702243e-02 -1.052703221566624103e+00 1.604001217863223028e+00 2.190296556143389139e+00 -3.058527754016940325e-01 5.664639053919623413e-01 7.972836630755856246e-01 -4.067006972802584275e-01 -5.881892128672959741e-01 -4.189035642507344726e+00 9.697090400261407783e-01 1.255397681790819453e+00 1.134584115439136731e+00 -1.928244065722024780e+00 7.994331053167487433e-02 3.438536800959388628e-01 -1.584205780419249421e-01 -2.759410754671943522e+00 1.012476255757069454e+00 -1.451913781123250979e+00 1.040679200531908100e+00 7.011542297149426783e-01 -9.396631285067263972e-01 2.017853181470719015e-02 4.022341768719470134e-01 -1.254511679642129618e+00 2.941234027890319846e-01 6.930043469206385032e-01 -2.507458071680885858e-01 1.733856839805482331e+00 -1.158173986925584431e-01 1.440787589311757211e+00 3.901067974902275304e-01 -1.821708863655120414e-01 -7.082479033314122985e-01 -6.216109828348527211e-01 5.526725080455531236e-01 4.444815155440683951e-01 -1.516621762774261473e-01 -1.876194139144810258e+00 -1.928471351241305975e-01 3.898486587330352027e-01 2.131701629363896497e-02 8.920241865095824840e-01 -6.412670664875930182e-01 -3.067176945044777781e-01 -5.546049491800724152e-01 -9.696334495932578124e-01 -8.790108049791731659e-01 1.611289781099166429e+00 -9.001997803354795658e-02 -1.062138141719939366e-01 -2.549341856366284187e+00 1.008286900269329323e+00 -2.722849667746898294e-01 6.751228386684371419e-01 -9.642819554775200475e-01 7.232667453260646084e-01 -1.980663716933545038e+00 -3.255098874956980359e-01 1.772312829758920794e-02 1.353138682611702670e+00 -1.201923878283992497e-01 -5.109347620196021955e-01 6.919136849604693440e-01 5.558313653870517596e-02 -6.956309859081649671e-01 3.333358112919322935e-01 -2.934518306438265167e-01 2.508368242199272759e-03 -6.711653966856644393e-01 -7.523243247910496034e-01 -1.718093406335900741e-01 -1.097361740781523931e+00 1.825107862031696282e-01 2.449025124400428410e+00 7.788725075725715374e-01 -1.014151072355028299e-01 5.495331910880651982e-01 2.054311424269392693e-03 5.291715967284167377e-01 7.025122864036775772e-01 9.501948812677929457e-01 -1.043484788299320565e+00 1.756148304196490484e+00 -7.824010895483755057e-01 1.240310448452130176e-01 -8.027313164494805919e-01 2.039003076059004438e-01 -9.327346739792723440e+00 -9.354583464000301163e-01 -6.548460392909821515e+00 -1.249850783834976164e+00 -6.094254965217333897e-01 1.050938416358090238e-01
-3.751671454728812138e-01 -1.058281486981010877e-01 -5.941603428444214297e-01 -5.289340267964987019e-01 3.780786626904564796e-01 9.985984693445083549e-01 5.402895610098006340e-01 -5.509961487856986917e-01 -3.075029094093236770e-01 -6.218572945175122879e-02 9.808342033963705076e-01 -6.278531070849668883e-01 -1.805840014956008044e-01 -1.611773148493112207e-01 1.268278908618841461e-01 8.067864603523061673e-02 7.994701292022423633e-01 1.551139336908306188e+00 -2.276382746343229846e-01 9.071674698971443629e-02 -1.613434081134011155e-01 -8.250119822072199405e-01 8.700304558644195163e-02 5.370561416766826968e-01 -2.534763187232501602e-01 -5.813228247701071050e-01 -8.053929224399733466e-02 -4.061047155679359810e-01 7.633394449460619846e-01 2.926043950425259443e-01 9.789747815915751383e-01 -1.626269542325797790e+00 5.888001069779422725e-01 -4.941146051515542953e-02 -9.593408094260044150e-01 2.281572775180563895e+00 9.701543550933289239e-02 -4.659867365889671098e-01 -1.364244305597922313e+00 3.794336340554001485e-01 -6.371543298739993366e-01 -2.414476697028472285e-01 7.918977161775138107e-01 -1.248736467725741761e+00 -3.561013871055129787e-01 3.083750276009534774e-01 3.471822302459502962e-01 -3.707057672708883866e-01 4.508537376140424047e-01 -1.708370008408113261e+00 -1.128977053669366182e+00 2.846256962965668880e+00 3.585197667371372021e-01 -3.727573533258089267e+00 3.907768269735373973e-02 -1.043824173916346298e+00 -6.409806455956486015e-01 -7.446943190555528613e-02 -2.192914453380173934e-01 3.475205874217123653e-02 4.735951450579257704e-01 1.087905737582302024e-01 7.020654286745936327e-03 2.486009929126123674e-01 -2.656258095921395015e-02 4.871186334551375063e-01 -9.869004641903894592e-01 -1.706789808406416142e+00 1.301932592091365803e+00 -1.059032763324154081e+00 1.163952798386395315e+00 -1.015807377010240264e+00 -4.814035853526768549e-01 1.115121378743974656e+00 1.003032593853012688e+00 6.765158623601383869e-01 1.443946960873887797e-01 -2.695133175689796989e-02 -5.680420485111321582e-01 1.157086410289206668e+00 7.393099148193764680e-01 2.157453798607303352e-01 1.925036357420500110e-01 -3.858511075409776225e-01 -1.814366307252831767e+00 -2.055699819975406739e-02 1.337409701924455740e+00 -2.472989862727499599e-01 1.866007942648351792e+00 -2.167158170371711989e+00 -2.684879616290565263e-01 2.635514435632276831e-01 -1.976833801667472745e-01 -4.413848788990245020e-01 9.403449850645688446e-02 8.656215281668760975e-01 -2.369770355294809894e-01 -2.461147361575829196e-01 1.332911299836969099e-01 1.272249720338042733e+00 5.544805077871629573e-01 -7.189370076058272663e-02 1.340007544556598082e-02 1.765094714749541716e+00 -7.209028730814173169e-01 1.240056937680624749e+00 2.552946028774971121e-01 5.424611147381335208e-01 -1.042472802095825823e+00 1.199820715899696522e+00 -6.418471073603279065e-01 -5.192425105478867264e-01 -4.316373126015400352e-01 -5.801899967181258777e-01 2.209287752519137893e+00 -1.289244198000290220e+00 -1.122059243508991777e+00 -1.280231452985729712e+00 1.105890089960874789e+00 1.107616842842651161e+00 -1.458221725614242958e-01 4.927920296864176097e-01 -7.400195392913394565e-01 1.708780870692967468e-01 2.159488055426930675e+00 9.727923069347561846e-02 -8.775226504705784247e-01 -1.565511803568713889e+00 3.802327329173061932e-01 2.231361187362238763e+00 -8.825003061869559629e-01 -5.728268714905631054e-01 -2.655691939005720315e+00 -2.732212082791122043e+00 2.551264527308798158e+00 -6.370730830141660417e-02 4.168627254070197963e-01 5.791168182594399472e-01 7.319874130217305375e-01 1.946540550024135063e+00 7.625264621270958498e-01 1.117345382976757007e+00 -2.263043863152854607e-01 -1.332472669637994933e+00 -1.573176262086545263e+00 4.028301585842694599e-02 -4.041599331382521032e-01 1.435444836946761393e+00 -1.205921943696681931e+00 1.871413944151066433e+00 -1.177220719129574017e-01 3.980273378827235420e-01 -4.575288356361803532e-01 1.804811059471661983e+00 4.797097425913393054e-01 4.179842406051003517e-02 -7.765466876546817110e-01 -4.937032286460684566e-02 2.122665744420902723e+00 -1.557003508994005136e-01 -4.279385235965914025e-01 -2.724458149883347780e+00 8.468061952472223375e-01 -7.397413459295046900e-01 1.414631242651710752e-01 -6.026568103445975044e-01 -5.517124581258757710e-01 1.134158854976591080e+00 -2.476271104579380378e+00 7.484177906508308054e-01 -1.391557648679647707e+00 1.519587273158181873e+00 -9.826159778857556093e-01 9.498071589113726843e-01 -6.649083600372264202e-01 -3.739664402974947621e-01 -5.371512724935764149e-01 -1.312805273131353978e+00 -1.044542025918419048e+00 -6.970111540840694397e-01 1.395236897300585532e+00 1.306845970228761145e+00 2.338408038957841273e-01 -4.980643338248491592e-01 1.474363625468871453e+00 -2.074702329205056817e+00 -1.462726298349311671e-01 -9.861013653284834701e-01 5.859024737174270969e-01 -1.203615664162802495e-01 5.426596039020302742e-01 2.076129291458460369e+00