
54 atoms
1 atom types
   0.0000000000   10.4280799300 xlo xhi
   0.0000000000   10.4280799300 ylo yhi
   0.0000000000   10.4280799300 zlo zhi
   0.0000000000    0.0000000000    0.0000000000 xy xz yz

Atoms # atomic

     1      1    0.4643750000    0.3949230000   10.2940500000
     2      1    3.5348720000    0.2520400000   10.3158220000
     3      1    7.2324620000    0.1228930000   10.1355050000
     4      1    9.9507070000    3.2752620000    0.0515780000
     5      1    3.3706880000    3.3152460000   10.3646920000
     6      1    6.7449020000    3.3255490000   10.2638940000
     7      1    0.0488410000    6.7351830000   10.3711260000
     8      1    3.4651590000    7.0327210000    0.1006810000
     9      1    6.9307650000    6.6957410000    0.1507120000
    10      1   10.1233330000    0.1368890000    3.3011780000
    11      1    3.3081460000    0.0219510000    3.4692380000
    12      1    7.1162540000   10.0116820000    3.8228820000
    13      1   10.2833810000    3.3816330000    3.5961620000
    14      1    3.6750080000    3.1843190000    3.9967240000
    15      1    6.9892550000    3.2920210000    3.6984440000
    16      1    0.4982230000    7.2412900000    3.2778060000
    17      1    3.5704530000    6.5520740000    3.4567950000
    18      1    6.8032210000    7.0392460000    3.4280710000
    19      1   10.3091590000    0.0994260000    6.8924220000
    20      1    3.4370550000   10.3684960000    6.9731360000
    21      1    7.2526880000    9.9857130000    7.1602920000
    22      1    9.9882210000    3.8193700000    6.5101540000
    23      1    3.3795490000    3.8468420000    6.9077400000
    24      1    6.6164890000    3.2631720000    6.7142520000
    25      1   10.1576680000    7.1165020000    7.2578040000
    26      1    3.3743670000    6.9032890000    6.7801200000
    27      1    7.1298310000    6.9588770000    7.2617850000
    28      1    1.5422020000    2.1329710000    1.5503380000
    29      1    5.6699180000    1.1054690000    1.7107510000
    30      1    8.5130900000    1.7898790000    1.6984680000
    31      1    1.9555310000    5.0886780000    1.5922740000
    32      1    5.4747010000    4.8624430000    1.7339950000
    33      1    8.9310980000    5.1557250000    1.8983040000
    34      1    2.0521660000    8.8521970000    1.9591310000
    35      1    5.0983580000    8.5203820000    1.4825890000
    36      1    8.8847120000    8.4793550000    1.6471070000
    37      1    1.8016150000    1.6971370000    5.4598140000
    38      1    5.5814970000    1.4779090000    4.8725800000
    39      1    8.7363780000    1.5159260000    5.4921280000
    40      1    1.3323340000    5.5041190000    5.5846390000
    41      1    5.4108570000    5.1845870000    5.4133500000
    42      1    8.3963130000    5.5316890000    5.1707350000
    43      1    1.6428930000    9.0357440000    5.3812830000
    44      1    5.1413850000    8.5704560000    5.1667500000
    45      1    8.9848480000    8.1466110000    5.0493800000
    46      1    1.3577270000    2.2488970000    8.1097190000
    47      1    4.9511170000    1.9240540000    8.3422290000
    48      1    8.5515580000    2.2705350000    8.3764730000
    49      1    1.7533270000    5.3976920000    8.8873150000
    50      1    5.0125090000    5.4878990000    8.8070480000
    51      1    8.6850970000    4.9585190000    8.8666720000
    52      1    1.7618510000    8.6701780000    8.7299850000
    53      1    5.1786470000    8.9149870000    8.5980960000
    54      1    9.0434810000    9.0196510000    9.0660600000
