1.106450000000000067e+01 6.725550000000000139e+00 6.734460000000000335e+00 5.016969999999999708e+00 8.208399999999999253e+00 3.456329999999999902e+00 1.384849999999999914e+00 8.727190000000000225e+00 8.298400000000000887e+00 4.276150000000000340e+00 7.881700000000000372e-01 7.387319999999999887e+00 1.009140000000000015e+01 1.506129999999999969e+00 5.224789999999999601e+00 8.225149999999999295e+00 1.053320000000000078e+01 6.310109999999999886e+00 3.557650000000000201e+00 1.199629999999999974e+01 5.248009999999999842e+00 1.885389999999999899e+00 8.869130000000000180e+00 5.677520000000000344e+00 3.105049999999999866e+00 6.198470000000000368e+00 7.246500000000000163e+00 8.837640000000000384e+00 3.983709999999999862e+00 1.778089999999999948e+00 3.011600000000000055e+00 1.480730000000000102e+00 2.218240000000000212e+00 6.827950000000000408e+00 2.939639999999999809e+00 6.989559999999999995e+00 8.803209999999999980e+00 3.637189999999999923e+00 5.606630000000000003e+00 1.033050000000000068e+01 1.177899999999999991e+01 7.947330000000000005e+00 5.538829999999999920e+00 9.403579999999999828e+00 8.992459999999999454e+00 2.874890000000000168e+00 5.609910000000000174e+00 3.969219999999999970e+00 9.784349999999999881e+00 9.311130000000000351e+00 1.761879999999999891e+00 8.043219999999999814e+00 3.117830000000000101e+00 9.041790000000000660e+00 6.685089999999999755e+00 7.251870000000000260e+00 1.676139999999999963e+00 5.447409999999999641e+00 4.279279999999999973e+00 8.898310000000000386e+00 7.148950000000000138e+00 2.967130000000000045e+00 3.700279999999999792e+00 6.953789999999999694e-01 5.379620000000000068e+00 8.926920000000000854e+00 4.905879999999999797e+00 5.772059999999999746e+00 5.125729999999999897e+00 2.787329999999999863e+00 1.095299999999999940e+01 1.518009999999999915e-01 7.427080000000000126e+00 8.230019999999999669e+00 3.961990000000000123e+00 7.242090000000000138e+00 5.640349999999999753e+00 3.870909999999999851e+00 2.802080000000000126e+00 1.073339999999999961e+01 7.611220000000000319e+00 1.005470000000000041e+01 2.970950000000000202e+00 7.739779999999999660e+00 1.153330000000000055e+01 6.157759999999999678e+00 1.088840000000000074e+01 3.346439999999999859e+00 3.813410000000000188e+00 7.778159999999999741e+00 1.190530000000000044e+01 3.804930000000000145e+00 7.166780000000000150e+00 4.539659999999999584e+00 4.656469999999999665e+00 1.136389999999999922e+01 1.219999999999999929e+01 -1.033420000000000033e-01 4.422299999999999898e+00 6.874179999999999957e+00 5.807750000000000412e+00 6.736399999999999721e+00 4.630819999999999936e+00 2.554460000000000175e+00 5.428250000000000242e+00 1.006559999999999988e+01 2.592740000000000045e+00 1.104180000000000028e+01 1.514669999999999961e+00 8.433960000000000790e+00 3.207269999999999843e+00 8.905839999999999534e+00 1.262250000000000094e+00 2.070019999999999971e+00 5.684140000000000192e+00 9.038050000000000139e+00 6.146899999999999586e+00 1.133849999999999980e+01 3.198519999999999808e+00 2.566100000000000048e+00 9.287819999999999965e+00 6.678060000000000329e+00 9.609769999999999701e-01 8.847920000000000229e+00 6.353839999999999932e+00 8.625140000000000029e+00 1.076750000000000007e+01 6.666990000000000194e+00 3.959839999999999804e+00 4.169760000000000133e-01 1.510420000000000096e+00 7.670700000000000074e+00 8.314239999999999853e+00 8.659169999999999590e+00 1.099649999999999928e+01 1.190959999999999930e+01 9.365090000000000359e+00 2.554350000000000231e-01 1.149499999999999966e+00 5.276189999999999714e+00 1.254790000000000072e+00 7.084800000000000431e+00 1.064840000000000053e+01 2.263129999999999864e+00 6.963519999999999932e+00 1.181589999999999918e+01 8.720039999999999125e+00 1.048529999999999962e+00 3.910569999999999879e+00 4.979700000000000237e+00 1.041600000000000037e+01 1.134960000000000058e+01 1.046599999999999930e+01 3.486540000000000195e+00 1.073160000000000025e+01 2.791780000000000150e+00 5.376020000000000243e-01 5.447149999999999492e-01 3.800149999999999917e-01 1.289840000000000098e+00 3.507579999999999920e+00 1.078449999999999953e+01 4.480310000000000237e+00 7.404729999999999812e+00 1.000150000000000006e+01 6.944749999999999979e+00 6.346289999999999987e-01 5.015649999999999942e+00 4.529580000000000162e+00 3.937949999999999839e+00 2.362280000000000157e+00 1.132699999999999996e+01 9.180630000000000734e+00 5.002900000000000347e+00 4.279759999999999565e+00 1.115159999999999929e+00 9.791850000000000165e+00 5.939720000000000333e+00 1.175910000000000011e+00 1.025239999999999929e+00 1.080680000000000085e+01 9.039569999999999439e+00 8.018409999999999371e+00 5.858670000000000044e+00 1.026679999999999993e+01 1.162100000000000044e+01 3.802500000000000213e+00 7.594219999999999970e+00 1.002490000000000103e+00 8.008290000000000575e+00 2.100519999999999887e-01 1.123339999999999961e+01
1.126290000000000013e+00 2.207559999999999967e+00 3.340190000000000214e+00 6.698240000000000194e+00 4.896690000000000431e+00 1.184510000000000041e+01 1.150700000000000056e+00 8.455830000000000624e+00 7.793059999999999654e+00 3.358109999999999928e+00 2.827620000000000022e+00 2.241730000000000000e+00 1.117769999999999975e+01 1.142719999999999914e+01 1.242009999999999970e+01 2.698599999999999888e+00 5.258070000000000022e+00 9.044150000000000134e+00 8.656940000000000524e+00 8.055059999999999221e+00 1.130489999999999995e+01 6.919170000000000265e+00 9.583589999999999165e+00 9.245960000000000178e+00 6.574370000000000047e+00 1.735170000000000101e+00 3.348110000000000142e+00 6.191879999999999606e-01 1.067759999999999998e+01 8.950279999999999347e+00 2.360860000000000181e+00 4.588059999999999583e+00 1.260769999999999946e+01 9.954029999999999490e+00 6.914399999999999658e+00 6.314129999999999576e+00 6.188170000000000393e+00 5.075479999999999769e+00 2.109309999999999796e+00 1.124249999999999972e+01 1.117619999999999969e+01 3.268440000000000012e+00 5.832429999999999559e+00 7.967780000000000307e+00 1.780680000000000041e+00 1.120899999999999963e+01 6.869979999999999976e+00 8.820119999999999294e+00 1.076389999999999958e+01 8.755739999999999412e+00 2.342760000000000176e+00 4.244989999999999597e+00 9.351530000000000342e+00 7.389719999999999622e+00 2.564130000000000020e+00 7.214949999999999974e+00 3.994169999999999998e+00 2.575289999999999857e+00 9.439249999999999474e+00 9.440450000000000230e+00 2.530860000000000110e+00 7.212150000000000283e+00 1.015659999999999918e+01 9.178549999999999542e+00 1.425680000000000058e+00 5.113809999999999967e+00 8.638049999999999784e+00 6.420580000000000176e+00 8.958650000000000446e+00 8.872749999999999915e+00 4.271190000000000264e-01 8.769489999999999341e+00 4.700949999999999740e+00 -2.462749999999999939e-01 6.245499999999999829e+00 1.120400000000000063e+00 5.303020000000000067e+00 6.631260000000000154e+00 8.147710000000000008e+00 8.799599999999999866e+00 1.401389999999999914e+00 6.402070000000000149e+00 5.003370000000000317e+00 9.537250000000000227e+00 8.543969999999999843e+00 4.005950000000000344e+00 8.483919999999999462e+00 1.045059999999999967e+01 5.862289999999999779e+00 4.213040000000000340e+00 8.195249999999999702e+00 6.647759999999999891e+00 3.236390000000000100e+00 1.039230000000000054e+01 6.188530000000000086e+00 1.932060000000000111e+00 1.028340000000000032e+01 3.658669999999999867e+00 6.741850000000000342e+00 1.735910000000000064e+00 1.161790000000000056e+01 1.780469999999999997e+00 5.112919999999999909e+00 5.129760000000000097e+00 4.584520000000000373e+00 6.076999999999999957e+00 2.768979999999999997e+00 6.508160000000000167e+00 8.758340000000000458e+00 2.713859999999999939e+00 1.166960000000000086e+01 1.106099999999999994e+01 9.147800000000000376e-01 9.829969999999999430e+00 2.027090000000000003e-01 3.816349999999999909e+00 1.032510000000000083e+01 3.710459999999999869e+00 2.472890000000000033e+00 5.049199999999999910e+00 1.417999999999999927e+00 5.024269999999999570e+00 3.822529999999999983e+00 5.646429999999999616e+00 1.260939999999999950e+00 2.000049999999999883e-01 3.888430000000000053e+00 6.650179999999999758e+00 1.370770000000000044e+00 1.134519999999999973e+00 8.944670000000000343e+00 4.735190000000000232e+00 5.943539999999999601e+00 1.121170000000000044e+01 2.695440000000000058e+00 9.434670000000000556e+00 1.258410000000000029e+00 1.894940000000000069e+00 3.587229999999999919e+00 9.705510000000000304e+00 3.830130000000000035e+00 5.643799999999999928e-01 7.933559999999999945e+00 1.193810000000000038e+01 7.494060000000000166e+00 1.044960000000000022e+01 6.868269999999999875e+00 3.925110000000000099e+00 6.749410000000000132e+00 6.601460000000000328e+00 7.311770000000000103e+00 6.448100000000000165e+00 6.875630000000000130e+00 2.914849999999999941e+00 1.276899999999999924e+00 8.106159999999999144e+00 7.407500000000000195e-02 1.011600000000000055e+00 7.277969999999999828e+00 6.734079999999999622e+00 2.137199999999999989e+00 9.242319999999999425e+00 1.995309999999999917e+00 1.218550000000000050e-01 1.072710000000000008e+01 8.503719999999999501e+00 1.121269999999999989e+01 1.133779999999999966e+01 6.542060000000000208e+00 8.351259999999999906e+00 4.358450000000000379e+00 -1.767960000000000087e-01 3.150399999999999867e+00 1.006739999999999968e+00 3.777359999999999829e+00 1.013390000000000057e+01 1.199699999999999989e+01 9.365880000000000649e+00 5.511630000000000251e+00 1.201079999999999970e+01 5.546590000000000131e+00 7.288059999999999761e+00 1.101210000000000022e+01 1.021320000000000050e+01 9.562079999999999913e+00 8.883990000000000720e+00 4.066489999999999938e+00 3.446450000000000014e+00 1.111919999999999931e+01 9.425459999999999283e+00 9.736900000000000333e+00 4.354930000000000412e+00
1.084310000000000107e+00 1.007579999999999920e+01 1.073629999999999995e+01 3.737080000000000179e+00 4.400430000000000064e+00 2.400500000000000078e+00 1.073670000000000080e+01 1.181900000000000084e+01 1.014100000000000001e+01 1.498150000000000093e+00 8.920869999999999633e-01 5.885069999999999801e+00 8.645530000000000825e+00 1.240399999999999947e+00 3.494069999999999787e+00 1.114220000000000077e+01 7.800900000000000389e+00 7.582460000000000200e+00 1.498939999999999939e+00 1.120839999999999925e+01 1.913350000000000106e+00 3.304570000000000007e+00 9.130770000000000053e+00 8.162630000000000052e+00 1.479910000000000059e+00 6.630499999999999616e+00 8.822020000000000195e+00 1.157390000000000008e+01 6.007039999999999935e+00 1.538249999999999895e-01 6.149020000000000152e+00 2.149779999999999802e+00 1.040079999999999893e+00 4.830470000000000041e+00 3.201569999999999805e+00 7.244839999999999947e+00 4.102240000000000109e+00 4.345229999999999926e+00 5.094990000000000130e+00 8.999589999999999534e+00 2.615060000000000162e+00 6.067549999999999777e+00 6.889619999999999855e+00 9.863160000000000593e+00 7.490330000000000155e+00 2.397419999999999884e+00 2.290820000000000078e+00 3.588870000000000005e+00 8.836729999999999308e+00 5.796090000000000408e+00 2.372739999999999849e+00 1.060110000000000063e+01 5.531229999999999869e+00 9.032579999999999387e+00 3.222799999999999887e+00 6.831109999999999793e+00 1.168040000000000056e+01 1.305779999999999941e+00 3.605659999999999865e+00 6.298580000000000290e+00 7.499570000000000292e+00 3.900920000000000165e+00 3.940220000000000056e+00 2.168919999999999959e+00 7.080709999999999837e+00 2.112060000000000048e+00 5.482560000000000322e+00 2.510870000000000157e+00 3.236819999999999808e+00 7.769989999999999952e+00 1.141099999999999959e+01 9.280039999999999623e+00 8.503669999999999618e+00 6.636890000000000178e+00 7.139170000000000016e+00 7.121310000000000251e+00 7.424940000000000317e+00 3.624220000000000219e+00 5.310920000000000307e+00 1.180930000000000035e+01 1.023700000000000010e+01 8.995710000000000761e+00 1.132450000000000045e+01 6.324770000000000003e+00 7.961979999999999613e-01 8.057299999999999685e+00 2.066639999999999866e-01 1.048100000000000032e+00 1.539670000000000094e+00 9.354489999999999750e-01 6.476210000000000022e+00 5.901239999999999597e+00 5.227020000000000444e+00 7.756549999999999834e+00 2.092189999999999994e+00 1.050939999999999941e+01 1.148290000000000077e+01 1.167759999999999998e+01 3.890330000000000066e+00 6.387870000000000381e+00 7.187990000000000101e+00 8.698710000000000164e+00 1.109029999999999916e+01 4.543449999999999989e+00 6.661800000000000388e+00 1.090130000000000088e+01 2.627759999999999874e+00 1.008440000000000047e+01 2.034120000000000150e+00 6.433799999999999741e+00 5.262459999999999916e+00 7.549649999999999750e+00 1.151750000000000007e+01 8.517630000000000479e-01 4.849680000000000213e+00 7.519499999999999851e+00 5.688080000000000247e+00 1.175389999999999979e+01 8.318179999999999907e+00 1.987079999999999957e+00 8.648450000000000415e+00 5.663479999999999848e+00 1.100639999999999930e+01 1.466259999999999897e+00 4.519779999999999909e+00 1.128609999999999935e+01 1.105030000000000001e+01 6.416900000000000048e+00 4.219450000000000145e+00 1.136899999999999977e+01 1.463819999999999899e+00 7.435570000000000235e+00 7.892699999999999605e+00 8.188370000000000815e+00 1.007880000000000109e+00 2.065109999999999779e+00 9.564669999999999561e+00 4.113520000000000287e+00 1.244990000000000041e+00 4.825429999999999886e+00 2.917229999999999990e+00 5.073719999999999786e+00 9.463400000000000034e+00 3.888479999999999936e+00 9.105589999999999407e+00 1.047819999999999929e+01 3.288460000000000161e+00 1.101229999999999976e+01 3.142510000000000137e+00 2.775150000000000006e+00 1.030899999999999928e+01 1.166179999999999950e+01 6.941810000000000480e-01 6.140860000000000207e-01 9.696780000000000399e+00 7.137410000000000032e+00 4.409670000000000201e+00 4.233679999999999666e+00 1.143430000000000035e+01 2.494670000000000165e+00 2.597039999999999793e+00 8.381140000000000256e+00 3.849040000000000017e+00 5.622329999999999828e+00 8.417849999999999611e+00 5.123339999999999783e+00 5.508990000000000276e-01 4.773369999999999891e+00 6.306230000000000224e+00 5.420639999999999681e+00 1.559830000000000050e+00 4.769090000000000273e+00 1.143660000000000032e+01 7.533579999999999721e+00 7.615739999999999732e+00 3.663289999999999935e+00 8.237019999999999342e+00 4.480949999999999989e+00 1.183910000000000018e+01 1.829749999999999988e+00 9.555659999999999599e+00 8.713179999999999481e+00 5.554870000000000196e+00 5.431759999999999700e+00 8.710779999999999745e+00 1.087570000000000014e+01 2.470979999999999954e+00 5.297929999999999584e-01 1.075270000000000081e+01 9.725600000000000023e+00 9.046459999999999724e+00 9.769980000000000331e+00
1.235810000000000031e+01 3.789499999999999869e+00 1.105729999999999968e+01 3.469419999999999948e+00 5.212369999999999948e+00 1.132160000000000055e+00 2.867900000000000116e+00 6.621100000000000207e+00 5.558189999999999742e+00 3.706020000000000092e+00 2.703609999999999847e+00 5.659950000000000259e+00 7.352339999999999876e+00 1.824629999999999974e+00 3.909159999999999857e-01 9.629680000000000462e+00 4.642769999999999619e+00 1.188660000000000050e+00 8.788009999999999877e+00 3.555919999999999970e+00 4.188259999999999650e+00 1.092450000000000010e+01 3.274919999999999831e+00 4.467539999999999623e+00 1.678989999999999982e+00 6.041610000000000369e+00 3.520160000000000178e+00 1.240019999999999900e+00 9.061139999999999972e+00 9.892229999999999634e-01 1.767600000000000060e+00 1.013870000000000049e+00 5.491170000000000329e+00 4.406080000000000219e+00 8.507130000000000081e+00 4.157020000000000159e+00 8.196509999999999962e+00 7.371170000000000222e+00 1.361059999999999937e+00 9.135680000000000689e+00 1.002229999999999954e+01 6.232809999999999739e-01 5.024530000000000385e+00 1.062800000000000011e+01 4.944110000000000227e+00 3.551920000000000077e-01 7.649650000000000283e+00 4.795429999999999637e+00 2.097109999999999808e+00 1.640509999999999913e+00 9.296390000000000597e+00 6.788359999999999950e+00 2.661779999999999813e+00 5.850839999999999819e+00 1.546839999999999993e+00 4.663339999999999819e+00 9.235030000000000072e+00 2.454250000000000043e+00 1.148869999999999969e+01 1.195040000000000013e+01 9.171640000000000015e+00 1.885210000000000052e+00 7.173580000000000290e+00 1.103049999999999997e+01 5.155949999999999811e+00 8.299759999999999138e+00 7.511610000000000120e+00 4.793540000000000134e+00 1.151370000000000005e+01 9.289600000000000080e+00 1.776699999999999946e-01 1.027200000000000024e+01 3.745960000000000178e+00 7.573450000000000237e+00 8.482730000000000103e+00 5.778089999999999726e+00 8.910709999999999908e+00 7.531080000000000219e+00 4.353290000000000326e+00 9.308370000000000033e+00 6.068860000000000365e-01 5.162899999999999601e+00 7.105719999999999814e+00 1.055160000000000053e+01 9.366759999999999309e+00 7.432559999999999611e+00 6.136529999999999596e+00 1.077800000000000047e+01 9.527549999999999741e+00 8.600580000000000780e+00 7.096510000000000318e+00 9.433550000000000324e+00 1.086890000000000001e+01 1.205380000000000074e+01 7.015349999999999753e+00 2.081599999999999895e+00 2.221239999999999881e+00 2.359760000000000080e+00 4.723780000000000201e-01 1.404060000000000030e-01 3.796539999999999804e+00 2.258789999999999853e+00 3.956869999999999887e+00 4.395620000000000083e+00 3.731189999999999785e+00 -2.007940000000000003e-01 5.408039999999999736e+00 5.759970000000000034e+00 9.863450000000000273e+00 1.981459999999999999e+00 1.253900000000000015e+00 6.356340000000000323e+00 3.362490000000000201e+00 1.947340000000000071e+00 1.009849999999999959e+01 6.353720000000000034e+00 3.896300000000000097e+00 7.219730000000000203e+00 8.593480000000000008e-01 3.846119999999999983e+00 5.432699999999999640e+00 7.183209999999999873e+00 1.427119999999999944e+00 5.688450000000000450e-01 9.653939999999999744e-01 3.282449999999999868e+00 2.817880000000000162e+00 1.104509999999999970e+01 2.699240000000000084e+00 2.659800000000000164e+00 9.591939999999999245e+00 6.104940000000000033e+00 1.139090000000000025e+01 9.617029999999999745e+00 2.922649999999999970e+00 6.816309999999999647e+00 1.053999999999999915e+01 2.336980000000000057e+00 9.961850000000000094e+00 1.007670000000000066e+01 5.265369999999999884e+00 7.199119999999999742e+00 7.117490000000000094e+00 4.097699999999999676e+00 4.661940000000000417e+00 2.087710000000000121e-01 7.491279999999999717e+00 3.583200000000000163e+00 4.667029999999999568e+00 7.336299999999999599e+00 4.693920000000000314e+00 3.466340000000000199e+00 1.037160000000000082e+01 1.213959999999999972e+01 1.165620000000000012e+01 1.196240000000000059e+01 1.192759999999999998e+01 1.182269999999999932e+00 6.992149999999999643e+00 8.633440000000000225e+00 4.703780000000000072e+00 6.857619999999999827e+00 9.272510000000000474e+00 3.209119999999999973e+00 1.024680000000000035e+01 6.860479999999999912e+00 2.728860000000000063e+00 9.111629999999999896e+00 6.140220000000000233e+00 6.385270000000000223e+00 6.748910000000000409e+00 1.169950000000000045e+00 1.055119999999999969e+01 9.166529999999999845e+00 5.380679999999999907e+00 2.259130000000000027e-01 9.865190000000000126e+00 2.030149999999999899e+00 7.576410000000000089e+00 1.105700000000000038e+01 1.129539999999999988e+00 7.874929999999999986e+00 7.677719999999999878e+00 8.201900000000000190e+00 1.053410000000000046e+01 7.706920000000000215e+00 1.037710000000000043e+01 8.225179999999999936e+00 1.079770000000000074e+01 8.249090000000000700e+00 6.796090000000000408e+00 9.503140000000000143e+00
8.528230000000000643e+00 4.487479999999999691e+00 5.112479999999999691e+00 1.086999999999999966e+00 5.289229999999999876e+00 4.558069999999999844e+00 1.199070000000000036e+01 8.681050000000000821e+00 6.955219999999999736e+00 8.393100000000000449e+00 2.139009999999999856e+00 2.895230000000000192e+00 1.157010000000000005e+01 4.157660000000000244e-01 2.171400000000000219e+00 8.552809999999999135e+00 6.916509999999999714e+00 9.153520000000000323e+00 9.412559999999999150e+00 6.812059999999999782e-01 8.594899999999999762e-01 8.381090000000000373e+00 4.193579999999999863e+00 8.334820000000000562e+00 6.074300000000000033e+00 5.919819999999999638e+00 5.603740000000000165e+00 6.128630000000000244e+00 5.942809999999999482e-01 2.966569999999999929e+00 4.602020000000000444e+00 1.023320000000000007e+01 2.296980000000000022e+00 7.652849999999999930e+00 7.706019999999999648e+00 4.405569999999999986e+00 7.138860000000000205e+00 6.512360000000000149e+00 1.128260000000000041e+01 7.921499999999999986e+00 1.091419999999999924e+01 2.449759999999999938e+00 8.326489999999999725e+00 1.005930000000000035e+01 5.857569999999999943e+00 1.101510000000000034e+01 1.136860000000000070e+01 6.470159999999999911e+00 1.527050000000000018e+00 1.083639999999999937e+01 5.246150000000000091e+00 3.039149999999999796e+00 2.423360000000000181e+00 5.613249999999999851e+00 -6.412000000000000165e-03 4.437770000000000437e+00 1.763889999999999958e+00 2.410810000000000120e+00 7.197540000000000049e-01 7.171870000000000189e+00 6.494570000000000398e+00 2.754859999999999864e+00 6.214850000000000207e+00 3.124789999999999957e+00 2.296920000000000073e+00 1.062979999999999947e+01 6.096020000000000216e+00 5.126219999999999999e+00 8.480249999999999844e+00 7.497340000000000337e+00 1.156429999999999936e+01 2.390000000000000110e-02 2.477189999999999781e+00 7.174220000000000041e+00 1.120149999999999935e+01 5.228850000000000442e+00 9.128550000000000608e+00 5.567109999999999559e+00 1.938039999999999985e+00 9.716250000000000497e+00 9.575630000000000308e+00 4.445400000000000240e+00 4.201749999999999652e+00 1.124080000000000013e+01 9.264480000000000715e+00 7.804700000000000415e+00 6.415930000000000355e+00 7.201810000000000045e+00 2.862600000000000033e+00 9.912499999999999645e+00 1.053589999999999982e+01 1.034810000000000052e+01 4.758129999999999860e-01 2.086899999999999866e-02 7.137410000000000032e+00 4.771710000000000118e-01 4.227970000000000006e+00 3.130029999999999757e-01 7.595239999999999769e-01 1.097279999999999944e+01 7.547649999999999970e+00 2.839910000000000156e+00 4.804750000000000298e+00 3.142700000000000049e+00 2.925809999999999800e+00 1.641720000000000124e-01 2.470849999999999991e+00 4.531740000000000101e+00 7.566659999999999719e+00 3.722230000000000150e+00 5.976420000000000066e-01 4.994100000000000428e+00 5.118759999999999977e+00 1.285600000000000076e+00 1.053009999999999913e+01 5.606779999999999653e+00 6.913680000000000270e+00 9.445579999999999643e+00 2.030809999999999782e+00 5.372889999999999944e+00 2.398340000000000138e+00 6.548709999999999809e+00 2.026749999999999829e+00 1.004289999999999949e+01 2.893850000000000033e+00 1.112979999999999947e+01 6.211800000000000210e+00 7.676999999999999602e+00 2.243739999999999846e+00 2.492900000000000116e+00 7.091359999999999886e+00 5.164329999999999643e+00 1.043449999999999989e+01 1.016670000000000051e+01 3.703920000000000101e+00 7.737119999999999997e+00 9.671179999999999666e+00 9.313200000000000145e+00 2.067180000000000017e+00 9.911519999999999442e+00 3.280349999999999877e+00 8.792199999999999349e+00 8.503000000000000114e+00 2.192290000000000072e-01 4.874319999999999986e+00 3.772619999999999862e-01 5.540809999999999569e+00 7.121239999999999792e-01 3.325480000000000214e+00 7.671490000000000364e+00 1.972169999999999979e+00 2.569059999999999899e+00 2.207629999999999981e+00 1.495689999999999964e+00 6.223950000000000315e-01 9.741749999999999687e+00 9.980380000000000251e+00 1.483510000000000106e+00 8.381099999999999994e+00 1.162529999999999930e+01 7.226009999999999600e+00 9.265729999999999578e+00 9.405430000000000845e+00 4.680959999999999788e+00 2.452719999999999789e+00 5.186009999999999565e+00 1.019609999999999905e+00 9.891339999999999577e+00 3.543379999999999974e+00 4.436390000000000278e+00 7.632880000000000109e+00 4.870429999999999815e+00 8.387610000000000454e+00 1.178079999999999927e+01 5.691910000000000025e+00 7.776390000000000136e+00 7.662759999999999572e+00 8.180929999999999591e-01 4.569329999999999892e+00 1.083419999999999916e+01 3.328479999999999883e+00 9.793369999999999465e+00 7.178480000000000416e+00 7.172469999999999679e+00 1.189220000000000077e+01 7.272210000000000285e+00 1.744850000000000012e+00 1.016939999999999955e+01 6.106909999999999838e-01 1.084019999999999939e+01 1.082429999999999914e+01 9.684900000000000730e+00
8.762620000000000076e+00 3.983179999999999943e+00 4.358380000000000365e+00 1.428770000000000095e+00 5.540479999999999627e+00 5.395380000000000287e+00 1.151820000000000022e+01 8.437089999999999534e+00 6.383910000000000196e+00 7.502169999999999561e+00 1.713479999999999892e+00 3.674729999999999830e+00 5.056869999999999976e-01 1.430339999999999945e-01 2.843589999999999840e+00 8.377879999999999328e+00 6.663590000000000124e+00 9.556879999999999598e+00 1.007060000000000066e+01 1.619010000000000060e+00 2.208740000000000148e+00 8.841639999999999944e+00 4.349579999999999558e+00 7.121809999999999974e+00 5.869200000000000195e+00 6.298099999999999810e+00 5.170180000000000220e+00 5.787309999999999732e+00 1.178720000000000034e+01 1.783470000000000111e+00 4.126459999999999795e+00 1.025639999999999930e+01 3.041659999999999808e+00 9.125450000000000728e+00 6.754010000000000069e+00 4.547880000000000145e+00 6.030949999999999811e+00 7.067919999999999980e+00 1.109280000000000044e+01 8.220520000000000493e+00 1.066960000000000086e+01 2.341629999999999878e+00 7.916240000000000165e+00 1.031530000000000058e+01 5.128650000000000375e+00 1.036679999999999957e+01 1.068549999999999933e+01 6.358880000000000088e+00 6.921190000000000397e-01 7.094660000000000410e-01 6.112280000000000157e+00 3.165490000000000137e+00 3.452259999999999884e+00 4.962640000000000384e+00 5.731030000000000291e-01 4.546190000000000175e+00 2.093399999999999928e+00 3.802160000000000206e+00 1.668309999999999960e+00 7.418669999999999654e+00 6.871019999999999683e+00 2.382490000000000219e+00 6.903789999999999871e+00 2.559590000000000032e+00 2.948929999999999829e+00 1.033039999999999914e+01 6.727079999999999949e+00 4.902199999999999669e+00 8.982480000000000686e+00 6.944910000000000139e+00 -8.794799999999999840e-02 1.165429999999999922e+01 3.106869999999999798e+00 7.033310000000000173e+00 1.032799999999999940e+01 5.614169999999999661e+00 8.903879999999999129e+00 5.507729999999999571e+00 1.530929999999999902e+00 8.511189999999999145e+00 1.008900000000000041e+01 4.200179999999999580e+00 4.701349999999999696e+00 1.108380000000000010e+01 8.752610000000000667e+00 8.171400000000000219e+00 7.019899999999999807e+00 8.643050000000000566e+00 1.841199999999999948e+00 9.549870000000000303e+00 1.101529999999999987e+01 1.013589999999999947e+01 6.239360000000000461e-01 1.155850000000000044e+01 7.735649999999999693e+00 2.083099999999999952e-01 3.972910000000000164e+00 1.365739999999999954e+00 1.198179999999999978e+01 1.148189999999999955e+01 6.425939999999999763e+00 3.611250000000000071e+00 5.550480000000000302e+00 3.443150000000000155e+00 3.573319999999999830e+00 1.153730000000000011e+01 2.782469999999999999e+00 4.178689999999999571e+00 6.080119999999999969e+00 2.867890000000000050e+00 3.665550000000000197e-01 4.653660000000000352e+00 5.812520000000000131e+00 1.469279999999999919e+00 1.095650000000000013e+01 5.112110000000000376e+00 5.760760000000000325e+00 9.021399999999999864e+00 1.005339999999999900e+00 5.796850000000000058e+00 2.128519999999999968e+00 6.956380000000000230e+00 1.786159999999999970e+00 1.066999999999999993e+01 3.014559999999999906e+00 1.128919999999999924e+01 6.484289999999999665e+00 8.151080000000000325e+00 2.949079999999999924e+00 3.209369999999999834e+00 8.144069999999999254e+00 5.725189999999999557e+00 1.092450000000000010e+01 9.933840000000000003e+00 3.442750000000000199e+00 6.924820000000000420e+00 9.387639999999999318e+00 1.011940000000000062e+01 1.822249999999999925e+00 9.574429999999999552e+00 3.524399999999999977e+00 9.082110000000000127e+00 8.135619999999999408e+00 1.374249999999999972e+00 4.483810000000000073e+00 1.172920000000000051e+01 5.144720000000000404e+00 1.247519999999999962e+00 3.517430000000000057e+00 7.623639999999999972e+00 2.455109999999999904e+00 2.376679999999999904e+00 2.534959999999999880e+00 1.166630000000000056e+00 3.434409999999999963e-01 9.765760000000000218e+00 1.085069999999999979e+01 1.938129999999999908e+00 8.294750000000000512e+00 1.103040000000000020e+01 6.931829999999999714e+00 8.712020000000000763e+00 9.097300000000000608e+00 4.101259999999999906e+00 1.609939999999999927e+00 5.509159999999999613e+00 1.104009999999999936e+00 9.262879999999999114e+00 4.206100000000000172e+00 4.447189999999999976e+00 7.230459999999999887e+00 4.438629999999999853e+00 1.006540000000000035e+01 1.121490000000000009e+01 5.716400000000000148e+00 7.133619999999999628e+00 7.734759999999999636e+00 9.998970000000000358e-01 4.968359999999999665e+00 1.055550000000000033e+01 1.986450000000000049e+00 9.795389999999999375e+00 7.805889999999999773e+00 6.953269999999999840e+00 1.093759999999999977e+01 7.641820000000000057e+00 1.855410000000000004e+00 1.091769999999999996e+01 3.226249999999999951e-01 1.034029999999999916e+01 1.038030000000000008e+01 9.213350000000000151e+00