-1.049234382115171502e+04
-1.049332533187126137e+04
-1.049676327112674699e+04
-1.049400609733415695e+04
-1.049279607485315319e+04
-1.049412644068624104e+04
-1.049581666661318923e+04
-1.049121877994566967e+04
-1.049531644702021367e+04
-1.049693967422406968e+04
-1.049546304958837391e+04
-1.049259938176417381e+04
-1.049356844560304125e+04
-1.049494950306084684e+04
-1.049448229346406151e+04
-1.049388953369661613e+04
-1.049237524706416298e+04
-1.049716626978620297e+04
-1.049783426768086974e+04
-1.049648178943663697e+04
-1.049336199926435802e+04
-1.049515836179591133e+04
-1.049502178839667977e+04
-1.049365316060578334e+04
-1.049795113307646352e+04
-1.049560939787871212e+04
-1.049622953115083510e+04
-1.049146008538118258e+04
-1.049448616896953536e+04
-1.049320971141067821e+04
-1.049297849954478079e+04
-1.049531361665050645e+04
-1.050179935290737012e+04
-1.049128328233637330e+04
-1.049550103620772643e+04
-1.049501824473069246e+04
-1.049282401134254178e+04
-1.049758691708285187e+04
-1.049237592286865402e+04
-1.049098851831049433e+04
-1.049652945695812377e+04
-1.049506614903862828e+04
-1.049488326977264478e+04
-1.049638365757801694e+04
-1.049742422973120847e+04
-1.049598512909593046e+04
-1.049303410942213304e+04
-1.049478700613211186e+04
-1.049532163293544909e+04
-1.049690958777842206e+04
-1.049342923568844344e+04
-1.049827308593288399e+04
-1.049486533124145899e+04
-1.049377170700537681e+04
-1.049565069926900833e+04
-1.049348173560381110e+04
-1.049169806238653837e+04
-1.049538003082925025e+04
-1.049682045170722995e+04
-1.049429081060092540e+04
-1.049487055055930250e+04
-1.049694078789844207e+04
-1.049459576513286629e+04
-1.049666155039917248e+04
-1.049322090854799353e+04
-1.049714377162043638e+04
-1.049360146226105826e+04
-1.049194179039316441e+04
-1.049430811800355696e+04
-1.049702106237066073e+04
-1.049373054281241275e+04
-1.049387976510350018e+04
-1.049237404378196334e+04
-1.049334023598964268e+04
-1.049398551603378473e+04
-1.049094384235333382e+04
-1.049849314735492408e+04
-1.049111277349113152e+04
-1.049704371551518852e+04
-1.049471604144771118e+04
-1.049490667178009244e+04
-1.049368176106907049e+04
-1.049642517376491742e+04
-1.049539706679115079e+04
-1.049341526344511476e+04
-1.049422900983236468e+04
-1.049556285933377694e+04
-1.049432685948810104e+04
-1.049073550371601414e+04
-1.049533841399471567e+04
-1.049689644347864851e+04
-1.049395404178917306e+04
-1.049420723390211788e+04
-1.049362207889940692e+04
-1.049716708441213086e+04
-1.049657689158293942e+04
-1.049131004776072587e+04
-1.049483444768291156e+04
-1.049626697799519752e+04
-1.049175604654468589e+04
-1.049513049078758195e+04
-1.049385181515803561e+04
-1.049030670727645338e+04
-1.049608701890107841e+04
