2.814895160849332015e-02 -1.466431258001842597e+00 3.008771765678440735e-01 -1.649288114690252049e+00 -1.813969843145669947e-01 6.556071372481939719e-01 -1.090944781516578060e-01 -8.341378557607891375e-01 4.662757285840708477e-01 1.026591097880916958e+00 -2.575042089325873529e-01 4.139404095561755037e-01 7.297613519064206911e-02 -1.059135607450525374e+00 -5.682677913685173499e-01 1.895777203467826910e-01 -2.847363051544793411e-01 4.997607476893459882e-02 -1.221946601247246855e+00 -1.650756728814836372e+00 -1.457555295675356133e+00 3.970297498569206329e-01 1.303981247088684958e-01 1.810118330613059934e+00 -3.017914608512861085e-01 1.007959341726836211e+00 9.232677178805921703e-02 9.395325164662343687e-02 2.241657427073914799e-01 -5.587629372092693947e-01 -4.322420360646040405e-01 3.364597016304646249e-01 -3.529790394288762068e-01 -8.170657307831311611e-01 -5.679716002845676126e-01 -9.127004838959273947e-01 1.658844905133317615e-01 1.324816438650273653e+00 -8.260471083391484060e-01 -5.152907249920642974e-01 9.471280694193967564e-01 -1.806498217364784997e+00 9.534576111769266227e-02 1.106091150227931141e+00 -1.202534258174007054e+00 -1.279085769417951823e+00 5.245595518812898872e-01 -1.105302849999293846e+00 -6.989040002299357068e-01 -1.537041464065309893e-01 4.945069554936611933e-01 1.216543170847691688e-02 2.139188681763736777e-01 2.406115469554475084e+00 -1.896877635620001501e-01 -6.538562159967202803e-01 -8.837241512907760832e-01 6.255391142416096839e-01 3.001737227434634336e-01 7.452008263779322794e-01 -1.702754204887601264e-01 4.913630105504864787e-01 -5.847300506767927342e-01 8.638644362678201682e-01 5.382342211442675550e-01 -1.031909167655583826e+00 -5.499203992238536065e-01 2.670162621806813075e-01 -2.527528102942271371e-01 1.378178142059355848e-01 -1.422869057174062646e-01 -7.231124791365075577e-01 1.670994910222838747e+00 8.198862309488675892e-01 6.103536647622355149e-01 2.248491419271296810e-01 -7.817490577871806512e-02 -5.196965673658164864e-01 -2.446754326090146980e-01 -6.224553331123622302e-01 1.292262158888659862e-01 -3.540652276695480882e+00 -1.937811140577727631e+00 7.864048113880154345e-01 -2.702306553504204567e-01 4.726212111811882166e-01 6.869807664390635837e-01 -1.191099533983398961e+00 -7.303629900456936053e-01 -2.007332227342921438e-01 3.364102850277431056e+00 3.993347438392203852e+00 -4.926393061587560074e-01 -4.949620407528548816e-01 3.685110736141220672e-02 -6.429043449794262510e-02 5.891652036265608849e-01 1.336506216274282677e+00 -3.280614502709733316e-01 2.404444252500939350e-01 3.662639294529062006e-01 8.786369665798129391e-01 -9.700098590957770828e-01 3.121448818972247352e+00 -5.694669538820082977e-01 -1.278275357702144954e-01 1.503587298197946120e+00 -4.723425035987216525e-02 -1.101532584326517239e-01 -8.132502136947509230e-01 -1.928195214761998288e+00 1.694885086558290954e+00 -5.152855827857458770e-01 1.274474238791456715e+00 -5.152130776766539189e-02 1.248219161770093566e-01 3.222605273229926515e-01 -1.984737372779117603e-01 -6.269840742171284287e-02 2.260884136499054231e-01 9.969956436350094764e-01 -8.894124599203799830e-01 4.165464797184276202e-01 1.277455175794332876e+00 -4.839402357296282986e-01 8.273079773284621741e-01 -6.557326070823670250e-01 -1.514220352423488736e+00 -6.136503332330718596e-02 1.657115066927749902e+00 -2.496691834311692393e+00 1.084680031558662217e+00 -2.372742550546945162e-01 9.836834999174910721e-02 -7.503157790030154928e-01 1.903350130713187705e+00 -1.560499180849370227e+00 -5.543812632052145389e-02 -3.798465532227814911e-01 4.107445283291831784e-01 -2.365990833650659930e-01 4.144649146006698648e-01 -7.909577208624787303e-01 2.799880946840366036e+00 5.671190224769485644e-01 6.370900522950172506e-01 -2.929502084174498311e+00 6.587392551168359534e-01 -1.304449187863674919e-01 -5.552482391905256831e-01 2.623200394161193216e+00 -6.883259676120019321e-01 -4.496437764672825410e-01 3.371837242801195011e-01 -2.612014552756404262e-01 -4.156702477617429947e-02 6.491341279343759707e-01 5.573498589129259884e-01 6.147101419553295809e-01 8.129560794933285983e-01 -6.235994740182443374e-01 -1.280378520086440930e-01 -9.117944271425950653e-01 -2.198369305842914567e+00 -7.137012131322576503e-01 4.232339190357300995e-01 -2.130486011790186041e+00 2.471524333926707062e-01 -2.189191496005528023e-02 1.138134808902110523e-01 -4.111764736599432535e-01 -5.922489847558083387e-01 1.121664836284357314e+00 -9.505676912258893829e-02 -8.784605889030858705e-01 1.213068582038232757e+00 2.787362245557803764e+00 -2.603700119359905862e+00 2.445655950820500468e+00 9.589433168775788330e-01 1.474753918928450869e-01 3.564191754560006031e-01 1.002614532479312759e+00 -2.286043409353930134e+00 -1.544830363976050336e+00 -1.005537876771420702e+00 -3.097227998770510360e-01 -2.309827656239219970e-02 3.768841281626522655e-01 4.970199517215472679e-02 1.206133802597006976e+00 3.846272624371575577e-01
-6.590868682639714482e-01 -6.605590819329785202e-01 2.758042927791203303e-01 -1.833093708444438058e-02 -4.329012669146449221e-01 2.143760617401579083e+00 7.517751371562261808e-02 -1.131663856470819907e+00 -2.292976646133260576e+00 6.989574791756488770e-01 4.276155930397849969e-02 -7.755624693653070389e-01 2.391290488738032904e-01 -5.597085889512547485e-01 6.091982110024525277e-01 -2.469534300081419609e-01 -2.769378921620494260e+00 -1.274355453825497531e+00 -2.873305482421987800e-01 3.420467087955927354e-01 -4.615222730631830528e-01 -9.666118891604648100e-01 -4.442161776980300125e-01 7.294615612780480651e-01 7.132625829332834844e-01 1.981184622433616038e+00 3.715830276688367184e-01 9.560302569981079523e-01 -4.526859057253495022e-01 -1.901163664586530855e+00 -9.832350995265116689e-01 1.333713484022666096e-01 5.402633357575759021e-01 2.976638118393686305e-01 1.029716016660713107e+00 4.317077608281044143e-01 4.791070760108027127e-01 -5.818972092158915949e-02 -4.964568801296636025e-01 6.163196525330424391e-01 1.502711580461893348e+00 -2.357753019128308244e-02 2.266113246104410006e+00 1.729480308007745881e+00 6.082355899796158816e-02 1.305328505144150719e-01 -9.686019230057522078e-01 3.926619598099258535e-01 4.224697871767903457e-01 -2.660577549228995142e-01 -1.307744827893247530e+00 -1.077189379614398868e-02 -2.522946397112423855e-01 1.197413649121973123e+00 3.116445966444909121e+00 -1.608076930591322951e+00 -7.372262928190912445e-01 3.460652916114933753e+00 -2.347134363080457808e-01 4.898517161134583603e-02 -3.824783344166264865e-01 7.568844333543590652e-01 1.916174793271705257e+00 -1.036920761933663865e-01 -3.194811648078045851e-01 -1.389156752549506324e-01 9.397160932318074922e-01 8.857152135773268542e-01 2.395949327662658668e+00 -2.049237609294857432e+00 -4.977048936031809312e-01 -1.545087988512610755e+00 -2.271261108849932306e-02 7.067679763529274295e-01 -4.000770213213061810e-01 3.407842971443834218e-02 1.784361019163334117e-01 5.755866936217404195e-01 7.733996573877157665e-01 2.410095537245049158e-01 -2.325305697258120974e-01 -1.813472591794664135e+00 6.065705435736623574e-01 -1.287707192531669209e+00 1.675310249765384341e-01 -4.094841735605012634e-01 8.140421134678108572e-01 4.402355957868236969e-01 -1.359448169764590153e+00 1.210969533418991828e+00 -1.098406637105457495e+00 -6.767544607333200180e-01 -8.237685967193891790e-01 1.092005618680099488e+00 3.734974710812409282e-01 -1.370624755198005751e+00 1.281905241142424767e+00 -2.908349618483053733e-01 -2.109824112581533129e+00 8.971144565443365249e-01 3.805834313882328068e-01 8.426122117737952499e-02 3.859087002517456177e-01 -8.926458792534977538e-02 -5.784951255155246219e-01 1.134382026730816895e+00 -2.703478976544838597e-01 2.014469609713099019e-01 -6.810641438489150046e-01 -4.907140641130827707e-01 -3.979332355070936966e-01 -2.444882562990186581e-01 3.667252882038083861e+00 3.489040466096608561e+00 8.850570111685497343e-01 1.336590548457907257e+00 -7.771195294385705443e-01 -1.312768249245860330e+00 -9.893723227677271304e-01 -2.782103311155800229e-01 -1.148855280635068699e+00 -1.463083167467820411e+00 -4.445437362405230824e-03 -3.383103816845186018e-01 -4.808425706433206576e-02 7.083152662341856143e-01 -2.926097429370972058e+00 -1.653240414466706110e+00 -4.145307348415475102e-01 -3.823272563949867919e+00 2.039219562945016051e+00 1.732429877552078779e+00 2.856850422202558692e-01 -1.228326536626698662e+00 -8.164954601024014824e-01 -3.305574772180080445e-01 -3.737391547782137891e-01 1.165890895947864880e+00 1.219837268215368642e+00 1.753687758473053915e+00 -1.525111545406223346e-01 -5.024244105623661139e-02 -3.403574940199419890e-02 1.338907112404423838e-01 -3.894028294452150929e-01 7.566890295142533196e-01 -4.713243467476445070e-01 -9.004620328577268573e-01 2.717758883491512845e-01 1.106057725886860243e+00 -7.626092516488249817e-01 1.833700488790029337e-01 -1.624302648408943783e+00 1.263558877439024730e+00 3.183241683861259830e-01 -5.614086023601745357e-01 4.876097141585609696e-01 2.432577263269844747e-01 -3.752427359057642242e+00 -7.620878319281216839e-01 -1.091213718907039443e+00 3.872323041581460235e-01 1.537632303571313530e+00 2.295124031491896144e+00 2.568555196054995271e+00 -1.407798278895592503e+00 -6.279914324349364918e-01 4.055354733284700641e-01 -5.308906363007153129e-01 2.201023712744561434e-01 7.196450894158946676e-01 6.878497993069020433e-01 -3.514132376048710593e-02 4.661744271195948919e-01 8.996356803023323190e-01 -3.552518946216848827e-01 2.773587817492245144e-01 5.710420116773867391e-03 5.259541182348864696e-01 -4.374042969878181863e-01 8.359222013533333662e-02 7.093313662027354027e-01 -4.704923377652995842e-01 -2.561635843232725751e+00 -2.322666716975430035e+00 -2.006833433330019734e-01 4.079219712809191711e-01 -4.589876795687591882e-01 -9.400565072900969321e-01 -1.568621809950185853e+00 -2.868019294326495938e-01 1.897233476297246924e+00
-3.943342053047253493e-01 1.171577661915573332e+00 -1.222873741046485385e+00 1.763358705896391987e+00 -4.344074191453545786e-01 -1.438398520256148894e-01 6.508274564750815561e-01 -1.314463634669093217e+00 -2.900205906336331463e+00 3.367219541527117360e-02 -2.298499375719406657e-01 -1.095953290470867009e-01 -1.100175041858414242e-02 1.153718779371173841e+00 3.390930254862051796e-01 -2.462782583185135210e-01 -2.974257276868187416e-01 9.924581607795017746e-01 1.311257469029463718e-01 -9.175017619355777532e-01 3.276305333814770182e-01 -7.289468264255590801e-01 -4.247380143839122879e-01 4.097428265383254442e-01 -4.581150471564975346e-01 1.765982773780759019e-01 4.646307367827596790e-01 -1.210933537974761887e+00 -2.960239622443760488e-01 -2.606471254344984168e-01 4.365095530883866815e-01 -1.841465220331072739e-01 -2.061043600781666374e+00 6.270776623721262544e-01 -1.457445252460138341e-01 -1.002406273123410685e-01 -1.121890579141742728e-01 1.964235396186972127e-01 -3.372006935609708211e-01 -5.864120663635976477e-02 -1.740734540756571913e-01 -3.015703459795874841e-01 6.502499867055059335e-01 -3.421161285808935193e-01 -5.541462643764558660e-01 -1.869207423419767256e-01 -7.875129568496677113e-01 1.868976024135431402e-01 1.559968505157293572e+00 -5.917501907429069119e-01 2.613721765254169438e-01 1.557656569196463614e-01 3.903078577572836605e-01 9.399690897826812330e-01 4.059766746306034402e-01 2.700686758513854424e-01 -1.236432196446663356e+00 8.711997935812627603e-01 2.346491587290636463e-02 -1.270183067618608774e+00 5.681068403107459863e-01 -1.117504277152001069e-02 6.878369437911056872e-02 1.384921117204898966e+00 1.662503584928981315e+00 9.575574922747239759e-01 1.189104357931793227e-01 1.875581702372268511e+00 1.045192515017718149e+00 1.150467362315940933e+00 2.153427451059861664e-01 3.781681370803996467e-01 -6.160928812343934718e-02 -8.767677745830121383e-01 -3.516904025254420918e-01 9.810656026807060837e-01 1.689569073666151500e+00 -1.591069597413278913e+00 1.262853880952748420e-01 -3.394684065474609103e-01 4.836908387231775297e-01 -2.315658918204480388e-01 5.893215266986454592e-01 2.830501757026196996e-01 3.741894063634680023e+00 -1.064423338207912906e+00 -6.315910797020630518e+00 -9.488527654186456051e-01 1.592970156868622977e+00 3.804538477890047621e-01 2.256141479611435852e+00 -3.945002985688151664e+00 1.145765843078870860e+00 4.965982908034243803e-01 -2.173744308224538624e-01 -1.107898635748909011e-01 1.718263099144413220e+00 9.246792535150401005e-01 1.081592650884991791e+00 6.293217212095509883e-01 2.027232565795794028e-01 9.337475343578412190e-02 -8.200667223906493719e-01 8.894834223675762708e-02 -1.168139068550344550e+00 -4.413632816324864483e-01 1.147335758667930916e+00 6.168842667868216223e-01 -5.674938893175723170e-02 -1.600897382129333191e-01 1.110552528429923802e+00 -1.421939346271664739e+00 9.008631249505754182e-03 -5.820854139671514105e-01 -3.000354488155570820e+00 1.997608315194502548e+00 2.763609880351689085e+00 -4.979057996040475942e+00 1.653248641996816204e+00 5.998806874193901351e+00 -2.279025840390975621e-03 -1.812684291566027117e-01 1.846746266220245791e-01 -3.886664655003956304e-01 -7.915300484257358216e-01 -6.735884043029755075e-01 -2.108895944341030726e-01 -3.130091839352502903e-01 2.053540093321606363e-01 -2.791081603388026466e-01 -8.985280490613120064e-01 -4.434942119309026043e-01 4.725343078944044817e-01 5.466710390511481110e-01 -3.876627068270104282e-01 -3.559064974860390862e-01 2.982022008409230818e-01 -1.806739901061757969e-01 -2.176549895991951367e+00 -1.252872858488400798e+00 1.905717088281626281e-01 6.568176126155855776e-01 4.216465199451870927e-01 -1.493631472544559413e+00 -1.404839453379886249e+00 -1.339112286436534793e+00 1.254405235971335075e-01 -8.535717961005669929e-01 -6.287319101448107794e-01 -1.612230804855465105e-01 1.151981227856128775e+00 1.446034696639227901e-01 1.976160686860371607e+00 1.365652755908578930e+00 1.021213378512954684e+00 3.106602240889266842e-01 2.409015673918149802e-01 -9.233412514309479180e-01 -5.381272632528412148e-01 -5.725610194238929251e-01 -5.152099923528626890e-01 3.573170046792232823e-01 4.533122264549515612e-01 -4.054763379558065095e-01 -2.147663037776743056e-01 -1.725863280083262397e-01 3.102807292626161111e-03 3.970030103840640479e-01 -7.871946542785480672e-01 7.109254501614926947e-02 3.198334059406267582e-01 -1.003465567625036359e+00 9.124382313736802141e-02 6.416948980532981572e-01 -1.321855556252040098e-01 7.417735458666042947e-02 -3.018613948572186900e-01 -5.820694731275637412e-01 -3.804872721300754934e-01 -9.677452314330782235e-01 -3.196806824129651559e-01 -3.223633714493640001e-01 6.044920637796956653e-01 -7.824782226431540311e-01 1.091213718907039443e+00 8.911335563752059707e-01 7.281009334861539006e-01 -2.129238512537300343e-01 -2.614662789010468447e-01 -1.328869525670571539e-01 1.244043690239413358e-01 -2.919266522497381833e-01
-2.587373100077808852e-01 -2.182480916759791945e-01 -1.423537543995476717e-01 -7.824946777033735534e-01 -7.482732946532789919e-02 -4.174340245290130702e-01 1.310409004986899495e+00 6.038266622820724905e-01 2.859915177168426692e-01 5.341538804304808430e-01 -1.478812662375699416e+00 1.069373226010169979e-02 2.180197777154346261e-01 -2.809705646232629306e+00 -1.828169531673773829e+00 7.712101059372679090e-01 9.146982310506924785e-01 6.275008659521447152e-01 -4.212363775692177903e+00 5.466412142545004071e-01 -7.939504849398875130e-01 4.010700842055487492e+00 -1.534156686320591101e+00 1.057000049166422651e+00 8.311157811073645041e-01 -9.054885395341307763e-01 -2.240062314673894495e+00 -1.023962402010863304e+00 1.912703289786037653e+00 2.223013329624669687e+00 8.384171998591043451e-01 -4.705134208112057292e-01 8.506736486194200753e-01 -2.489876868277689226e-01 -1.949398074075365361e+00 -4.917990696463013789e-01 4.948113741077207473e-01 -4.603303096385381876e-03 4.041568478144610260e-02 -2.156898440324897526e-02 6.201480251372191166e-01 6.419874895928249225e-01 1.058710346987979500e+00 1.479323283463133576e+00 5.079270855438696719e-01 -5.210597662608698610e-02 3.360431829186603547e+00 -5.335604698213176900e-02 -1.913168145237236495e-01 3.559430071509009363e-01 -1.727375088740922549e-01 -7.326157906338599535e-01 -1.074289175250724288e-01 5.436865025038490895e-01 -3.346208486509433810e-01 1.437251808247107521e-01 -3.528607686835490420e-01 1.196191346680048673e+00 8.018345156675217578e-02 -1.984863871054554529e+00 -4.147652194496744688e-02 -3.797673632454754422e-01 -4.526941332554592495e-02 3.395023451091634947e-01 1.997978554049439359e-01 5.458899379113569816e-01 -1.163342418496380759e+00 1.636448025512778681e+00 1.362149884964368174e-01 8.545318460202445260e-03 -5.597111600544140142e-01 -9.488707631407607146e-02 1.878442825967921725e-01 -8.148083022092780792e-02 1.316739060965061159e-01 -9.132095623214658842e-02 8.483102905954045259e-01 -3.565117351697349446e-01 -1.429610489657709982e-01 1.864165490124407576e+00 -8.808116056319369447e-01 5.426014969706304258e-01 -7.201711371222845048e-02 -1.179582020271062293e+00 -3.879583836903283123e-01 1.420135460295109953e+00 7.076030706590634711e-01 3.618010085890178140e-01 6.062280726328455049e-01 -1.226534991945308573e+00 -9.301942697917082725e-01 1.018429388012080106e-01 -6.269110548874045064e-01 -2.366232517347632847e-01 5.486888408105557169e-02 -1.068921740295399214e+00 9.503167515575430269e-01 2.911470937718426688e-01 -6.754555394172487848e-01 -1.339565314813201125e-01 1.133336616186251478e+00 3.132035593340922741e-01 5.023225948772583882e-01 1.094564894764852581e-01 -1.230946490746011174e-01 8.240236501527904434e-01 -3.185423522002229557e+00 2.175804790296390401e+00 6.136698736170824731e-01 -1.152837405208170685e+00 1.526367786409850602e+00 -1.198965052768286244e+00 1.768718427542238958e+00 1.693243694301403091e+00 -1.007139159819024021e+00 -4.225937143490679504e-01 -1.798922204795633695e+00 5.635570161600739203e-01 6.908081106019764439e-01 1.117835435238917041e+00 3.049662590323722888e-01 -1.626450033767579573e+00 1.601452740411738684e+00 -8.992304744444288289e-01 1.289048279939552545e-02 -2.736846753346050543e-01 8.253102301736970903e-01 -7.009397997114582557e-01 1.742978085373364516e+00 1.395389106607615275e-02 1.875926230195612998e+00 -8.041803901900541618e-01 -4.313339224287442986e-01 4.259052952182281193e-01 -4.311673149440225505e-01 -4.808209733767826455e-01 -1.295097571452720420e+00 -1.348780148536081525e+00 -1.713167172682708850e-01 8.758874288612726600e-02 5.152336465019281553e-01 -2.553717359722756375e-01 4.548574594536823890e-01 -1.334803631762203624e-01 -1.438648945703863369e+00 1.934693420886777759e-01 -3.547127342891826629e+00 -3.514559179173152303e-01 -6.626401328301044502e-02 1.202429871385739979e+00 -2.569955933056174313e+00 1.336006908040749508e+00 1.467568199818878982e+00 -1.328873639435626641e+00 -3.084418762830948846e-01 -9.499403420550237565e-01 -4.444984848249196596e-01 4.166071577529867898e-01 7.966768827299942624e-01 4.448347851181542190e-01 -9.582953988814389978e-01 2.720895629345841671e-02 2.598171219126177434e+00 5.326657259218861573e-02 -7.771035885989828751e-01 5.282711964020347928e-01 -6.362822116823696472e-01 -2.840469923974747957e+00 -6.702536835053817255e-01 1.864995956444857050e-01 4.504464748736115576e-01 -2.001835208788368403e-01 7.489752058157638226e-01 1.721353565141875153e-01 1.077807987034522963e+00 -1.125357968862355396e+00 4.192444925296558544e+00 1.372511430696289780e+00 -2.669490021220343845e+00 -2.179500493977547748e+00 -1.709215901347518329e+00 -1.253324858423803256e+00 1.107940801840721301e+00 -6.331238685615028783e-02 3.127998961380843990e-01 7.575688610153609170e-01 1.135142559045333677e+00 -9.588147617196147721e-01 6.874744182456463681e-01 -2.511268446562947565e-01 1.587100842576605331e-01 -1.844200874092552858e-02
-2.849749035276610831e-01 1.084712427458469186e+00 3.750946403637893667e-01 -2.017361072326031568e+00 -1.627842543238648521e+00 -6.783295185286984941e-01 -2.830481188200922871e-01 8.966619423883022411e-02 -4.650693669817339004e-01 -2.768954689599212315e-01 -7.408124675056632080e-01 -2.540224210342825195e-01 9.445554235982153157e-01 5.504844992570008255e-01 4.918978000076179580e-01 3.419891160848247957e-01 2.348378777009551832e-01 -4.772301707045241148e-01 1.225299319766955719e+00 2.385439172168130284e+00 5.544506829905151424e-01 1.028989937128530707e+00 2.956367541085876405e-01 -1.205765106403965392e+00 -8.307285729715759015e-02 -3.137836002068271624e-01 -3.031268918322191364e-01 -7.402540238994662625e-01 6.612985312015891015e-01 5.606676104296683949e-01 1.074561712185608586e+00 -1.781012928629312375e+00 1.412099220260445875e+00 5.588796652927010555e-01 -1.468156468221723521e-01 7.455006170063049886e-01 -6.700253695448371571e-01 -5.634387454147467000e-01 -4.082006788633857353e-01 3.177163595992708034e-01 -1.480382063744127619e+00 5.860665100989895793e-01 2.922084451559958662e-01 -2.571571100060838222e-01 -6.219519111137740142e-01 1.053057005361341669e-01 -4.836964951501280252e-01 -1.043009134214852723e-01 -1.656701633539736873e+00 2.798855076679811482e+00 5.233111784533302391e+00 4.718077141415902287e-02 1.574798628180054338e+00 -6.113132004612810144e-01 1.304280523496425870e+00 2.270901154407632405e-01 -4.716637323646702407e-01 -6.200631787329625721e-01 -6.508855634064814044e-01 6.166276706915249095e-01 1.522756414912317668e-01 7.550460945954695635e-01 1.882350902770036361e-01 -2.421773487794526003e-01 1.499574320386932724e+00 9.251939883675293075e-01 -5.943320925354617090e-01 -1.740863095914536307e-01 4.663271506472564942e-01 -2.082852726219992512e+00 -1.019100445936653498e+00 -1.440051225366938192e+00 1.256241003627065200e-01 -3.336525712011563782e-01 -6.764536416636836025e-01 1.122810519852135203e+00 1.260174791460772492e-01 -2.462845318102221626e+00 -3.480137250076633659e-01 -7.859342995098661522e-01 5.328174210082841089e-01 -1.180663426259857873e+00 -1.616090544918184824e+00 -6.981352403853092525e+00 9.743298266240091321e-02 3.418610751474923104e-01 5.153791709407438137e-01 -9.885176880775802255e-01 -8.619685047981626713e-01 6.716539062859288034e-01 1.725621596386289536e+00 -4.087760917504340008e-01 -1.874380482976250317e-01 -4.667889207746642177e-02 2.241174059679969521e-01 -7.346798722501345358e-01 -4.817105750698955635e-01 1.746246471709448578e+00 -1.042477430081512280e+00 -5.233254223648325931e-01 -6.895518695983494650e-01 1.195679182930718953e+00 -8.536113910892199896e-02 -1.692201883301260423e+00 2.989600592081541386e+00 6.783917392251532785e-01 -7.081404312193542161e-01 -1.339375053179413799e-01 -1.319484484918546752e+00 -8.265788124724886277e-02 -1.332942153074880620e+00 1.230372620520858495e+00 3.947928386862788130e+00 4.311441235935257410e+00 9.442782586776443665e-01 -1.355023815448091362e+00 -1.223250664769636620e+00 -8.452589053659640417e-01 -1.021289483166469614e+00 4.924053357712609436e-01 -2.034318526102785463e-01 5.524426514231130236e-02 2.353423281408070500e-01 9.507296707249244250e-01 7.269691338754363796e-02 1.140597925728706469e-01 6.636192089131605076e-01 6.787162124438550492e-01 1.424026567816373046e+00 1.594944249874322706e+00 1.622808837473399102e+00 1.394776155614441349e+00 -2.959257461036913783e-01 9.208030583921008594e-01 4.277055816503600449e-01 4.024527206404863722e-01 1.904015017990179082e-01 3.059756741327078755e-01 1.110772100639726867e+00 -2.488751239314554109e+00 -2.372883447000073254e+00 -9.652384058527743727e-02 -7.843026774449833871e-01 2.399646574005712130e-01 2.648354524809750643e-01 6.375101705512445371e-02 -1.253454442023031357e+00 -1.951888958816081487e-01 3.823436086110798549e-02 1.755235562574943842e-01 1.507525199796708182e-01 -5.502844674312084017e-01 -6.994069080078919587e-01 -1.120763921737343738e+00 -4.674419809771228618e-01 -2.040226921162824614e-01 -1.766368439254651646e-01 5.626165066244070978e-01 -1.438959020744873252e-01 -2.461574164700270836e-02 6.751423790524477830e-01 -3.861488412868228914e-02 -5.701781210158667762e-02 1.269068237288742296e+00 1.602064148743016947e+00 1.450088812100789992e+00 -1.020058953194435292e+00 -1.597401710273968156e+00 7.081486587494639773e-02 -3.214151486042193806e-01 -6.428169274720105242e-02 -1.306824887182855000e-01 6.801827696859117367e-01 -1.643045476219506140e+00 3.201208552738349367e-01 -5.621501085113126406e-01 1.530758716385278939e+00 2.034179686532184284e-01 -2.097068869808315916e-01 -9.970378097268217665e-02 -1.238939022026966930e+00 2.747167161427424009e-01 1.282899743844436724e+00 -1.121047257305496786e-01 7.603050289974728759e-01 1.307207981553588638e+00 -1.120665191376026826e+00 9.508865080176408247e-02 -2.592628949156020823e+00 -3.561939468192472091e-01 -1.304836910220095403e+00 -3.797807329819037347e-01
-1.052320641416522262e+00 3.190147666947101279e-01 1.373303330469349826e-01 3.535043158043183364e+00 7.853768843449329129e-01 1.040941967274787022e-01 5.942457034693098272e-01 -6.710568961323425397e-01 -2.215982390925286608e-02 3.183282821511807664e-02 -1.085063640150027542e+00 -6.917182811203635984e-01 8.194810250909640992e-01 1.622663313034583332e+00 -2.712051034477898082e-01 6.478187515580852152e-01 5.529836115278267128e-01 -6.851527120928112280e-02 -5.525655501541268944e-01 -7.661835992608641011e-01 -6.540655037938861716e-01 -1.316559083743911396e+00 -5.429835629001004138e-01 1.176604682812609104e+00 3.801298887909347335e-01 -1.301282617212698334e+00 -7.060773780443432290e-01 -9.040955158424295313e-01 -1.918711443648656728e-02 2.196060969426508080e+00 2.478892601360588532e+00 3.052938175748652894e-01 -1.071033130209804840e+00 -2.547296286692756428e+00 8.169644293186552053e-01 5.069135566784791491e-01 -5.175949476434164032e-01 -8.888822984489351819e-01 2.795128519760742281e-01 2.849903301466167882e-01 1.957103156023113077e-01 1.468099903952219121e-02 2.215036224962669276e-01 -5.733529191969529704e-01 -5.506876164065844792e-01 9.583931008014917596e-01 -8.719608401164112843e-01 5.884062139739397734e-01 2.070313970332787745e-01 1.153808253761117071e-02 -1.629112668199336200e-01 -4.414635546556986423e-01 -2.304659738889055232e-01 -3.148799185939466505e-01 3.591692273951727632e-01 -9.204508172592786863e-01 -1.426894376280240406e+00 -1.311356199390780519e+00 1.503180035457515051e-01 -9.026294728210046969e-01 -5.324240422249134630e-01 6.700937608888740682e-01 1.037681808468812472e-01 -2.175153272755827455e-03 -1.105671031971703799e+00 -9.362343053335024923e-01 -2.992434976204338404e-01 -9.934696327623648848e-01 2.741762702586605371e-01 2.177382419194928254e+00 1.664583607384843567e-01 -1.809504351178622183e+00 2.971154983796193250e+00 -2.321504064126801214e+00 2.186188447515482192e-01 1.063477686465927441e+00 1.707282431771735443e+00 -1.307765910939153453e-01 -2.893156455694201767e+00 1.981738438054126528e+00 -3.107532980232928788e-01 5.473580378153093395e-01 -1.349726314498698662e-02 -1.377518911209315133e+00 -5.929272417692280084e-02 1.127583001536401446e-02 -1.772235696664141991e-01 -1.345991530049519991e+00 -1.482991733450802763e-01 1.030433354442153782e+00 -4.931566121144044246e-01 9.089888393751824891e-01 -6.225098404993389956e-01 2.727606208591577541e-01 -8.666139739863604197e-01 -1.996405038915956554e-01 -1.938675545459879412e+00 -7.262728791399017947e-01 6.588467272288941468e-01 1.558857274371850288e+00 3.423339010184850206e+00 -4.254270186085378214e+00 -3.377714784623322419e-01 8.674269568053266655e-01 3.395877057340517813e-01 4.010386139028791486e-01 -1.599970242330094772e+00 -9.385554972657059875e-03 2.815800703382032477e+00 1.576512525546034382e+00 -1.564619116551809949e-02 9.088088621540324485e-01 4.299295858831423539e-02 1.059553154603593450e+00 -2.003779991218051837e+00 -9.792699442342610583e-01 5.235363042459572291e+00 -2.702306553504204567e-01 1.256689404018044742e+00 -1.517033139279747311e-01 -3.214238903549609949e-01 3.663343776794705797e-01 -5.731102070587164032e-01 -2.987596160058562655e-01 -5.449982793357167621e-01 -1.871104897551320034e-01 -6.129869886179760696e-01 2.208125099670509017e-01 -2.987004806331926277e-02 -1.077074708413494619e+00 -1.841107836991932034e+00 4.131870763305047212e-01 -2.566045285150900579e+00 -5.361495707027186253e-01 8.232476912193178453e-01 1.711178681499317289e+00 1.176660218640849659e-01 -1.822948135377896184e-01 -1.056070852484656708e+00 -1.823688613087770527e-01 3.701730346962843754e-01 -4.792376880512944637e-01 -9.611040719726428039e-01 -1.129586405118116810e+00 4.073203331416462847e-01 5.232868558174432749e-01 5.365943715492750288e-01 6.499039162202659980e-01 8.433012674204838632e-02 -2.387356700904325335e-01 8.427767623759895022e-02 1.118892672858015289e-02 -2.921169138835253420e-01 -3.040056948920630830e-01 4.776091513102028174e-01 -5.140828207278319573e-01 7.609457479047668782e-01 1.193783765681693393e-01 -1.008584119794542655e+00 3.342146143517762402e-01 -1.375313933139911404e-01 2.596906750592440360e-01 -3.018953334189212190e-01 7.197273647169918354e-01 -3.812488328858559261e-01 6.370607417190012889e-01 2.939192571981847357e-01 6.514635473966887691e-01 3.750920692606300455e-01 -3.062903771594045060e-02 9.689464508290965838e-01 -1.594027394487721461e-01 -1.223668726143336549e+00 -5.557850855301846305e-02 -4.770887600307632814e-02 4.768378203624170641e-01 1.299081752908349818e+00 -7.136431062008578019e-01 1.219382697176806918e+00 7.219379992133457824e-01 1.537658528823538373e-01 6.497594202227142679e-01 -1.455223819330515589e-01 -1.920948303397235490e-01 -2.134113324127306366e-01 1.151771940058962662e-01 -1.034130600785206910e+00 -4.934204072985470813e-01 1.127633909378955357e+00 -3.653799841867437226e-01 1.367322944520850958e-01 3.652925666793279680e-01