1.375050000000000106e+00 1.443599999999999994e+00 1.536370000000000013e+00 4.274140000000000050e+00 4.276830000000000354e+00 1.399990000000000068e+00 1.430430000000000090e+00 4.521370000000000111e+00 4.620750000000000135e+00 4.334229999999999805e+00 1.388020000000000032e+00 4.374240000000000350e+00 7.507609999999999673e+00 1.428260000000000085e+00 1.508629999999999916e+00 1.032319999999999993e+01 4.349809999999999732e+00 1.432660000000000045e+00 7.546009999999999884e+00 4.463260000000000005e+00 4.584889999999999688e+00 1.047700000000000031e+01 1.419519999999999893e+00 4.482689999999999841e+00 1.449459999999999971e+00 7.618699999999999584e+00 1.512610000000000010e+00 4.476689999999999614e+00 1.060800000000000054e+01 1.462150000000000061e+00 1.359539999999999971e+00 1.014189999999999969e+01 4.374290000000000234e+00 4.504089999999999705e+00 7.573870000000000324e+00 4.528500000000000192e+00 7.464979999999999727e+00 7.458940000000000126e+00 1.460040000000000004e+00 1.039080000000000048e+01 1.043260000000000076e+01 1.488949999999999996e+00 7.440850000000000186e+00 1.047269999999999968e+01 4.529589999999999783e+00 1.061350000000000016e+01 7.549909999999999677e+00 4.568089999999999762e+00 1.376859999999999973e+00 1.407210000000000072e+00 7.415090000000000181e+00 4.340220000000000411e+00 4.323800000000000310e+00 7.399709999999999788e+00 1.314670000000000005e+00 4.265060000000000073e+00 1.019170000000000087e+01 4.282149999999999679e+00 1.325790000000000024e+00 1.023980000000000068e+01 7.504269999999999996e+00 1.412749999999999950e+00 7.562680000000000291e+00 1.017960000000000065e+01 4.263440000000000119e+00 7.284690000000000332e+00 7.504240000000000244e+00 4.424159999999999648e+00 1.061369999999999969e+01 1.025650000000000084e+01 1.366069999999999895e+00 1.033060000000000045e+01 1.395759999999999890e+00 7.473550000000000360e+00 7.592570000000000263e+00 4.476460000000000328e+00 1.060169999999999924e+01 7.607719999999999594e+00 1.394579999999999931e+00 1.030579999999999963e+01 1.039700000000000024e+01 4.509879999999999889e+00 7.613800000000000345e+00 1.079340000000000011e+01 7.336109999999999687e+00 7.351420000000000066e+00 7.428230000000000111e+00 1.016530000000000022e+01 1.016210000000000058e+01 7.302080000000000126e+00 7.482240000000000002e+00 1.050590000000000046e+01 1.057199999999999918e+01 1.035779999999999923e+01 7.356320000000000192e+00 1.045149999999999935e+01 4.679710000000000036e+00 1.655410000000000048e+00 1.743719999999999937e+00 1.604829999999999979e+00 4.595290000000000319e+00 1.704890000000000017e+00 4.712159999999999904e+00 4.706000000000000405e+00 4.790110000000000312e+00 1.656199999999999894e+00 1.689179999999999904e+00 4.813039999999999985e+00 1.070330000000000048e+01 1.657310000000000061e+00 1.743889999999999940e+00 7.508449999999999847e+00 4.547509999999999941e+00 1.669440000000000035e+00 1.053250000000000064e+01 4.608900000000000219e+00 4.651650000000000063e+00 7.786419999999999675e+00 1.652290000000000036e+00 4.790740000000000443e+00 4.751490000000000435e+00 7.858319999999999972e+00 1.740799999999999903e+00 1.655229999999999979e+00 1.076789999999999914e+01 1.744879999999999987e+00 4.766659999999999897e+00 1.093290000000000006e+01 4.838949999999999640e+00 1.653920000000000057e+00 7.823769999999999669e+00 4.834780000000000300e+00 1.098240000000000016e+01 7.862510000000000332e+00 1.786159999999999970e+00 7.631669999999999732e+00 1.061669999999999980e+01 1.704820000000000002e+00 1.055959999999999965e+01 1.054729999999999990e+01 4.689230000000000231e+00 7.809590000000000032e+00 7.814119999999999955e+00 4.837850000000000428e+00 4.593989999999999796e+00 1.604530000000000012e+00 7.621509999999999785e+00 1.683740000000000014e+00 4.755320000000000213e+00 7.904029999999999667e+00 4.564980000000000260e+00 4.577549999999999564e+00 1.056700000000000017e+01 1.648360000000000047e+00 1.655299999999999994e+00 1.092730000000000068e+01 1.086739999999999995e+01 1.683389999999999942e+00 7.868839999999999613e+00 7.722550000000000026e+00 4.684040000000000425e+00 7.788990000000000080e+00 1.072940000000000005e+01 4.669260000000000410e+00 1.080889999999999951e+01 7.493710000000000093e+00 1.593409999999999993e+00 1.052679999999999971e+01 4.677170000000000272e+00 7.682750000000000412e+00 7.769630000000000258e+00 1.677329999999999988e+00 1.094069999999999965e+01 7.929929999999999701e+00 4.533109999999999751e+00 1.040279999999999916e+01 1.052089999999999925e+01 1.700320000000000054e+00 7.812630000000000408e+00 1.099029999999999951e+01 1.051290000000000013e+01 7.539150000000000240e+00 7.608509999999999884e+00 7.790670000000000428e+00 1.084079999999999977e+01 7.861880000000000202e+00 1.095229999999999926e+01 1.094340000000000046e+01 1.102800000000000047e+01 7.599669999999999703e+00 7.619740000000000180e+00 1.064680000000000071e+01
1.398169999999999913e+00 1.398139999999999938e+00 1.478050000000000086e+00 4.299120000000000275e+00 4.299100000000000144e+00 1.421159999999999979e+00 1.411960000000000104e+00 4.515360000000000262e+00 4.596049999999999969e+00 4.318719999999999892e+00 1.350470000000000059e+00 4.395880000000000010e+00 7.521370000000000111e+00 1.393909999999999982e+00 1.473579999999999890e+00 1.034500000000000064e+01 4.356530000000000236e+00 1.440169999999999950e+00 7.561569999999999681e+00 4.481460000000000221e+00 4.561550000000000438e+00 1.049080000000000013e+01 1.381510000000000016e+00 4.496859999999999857e+00 1.407810000000000006e+00 7.596219999999999750e+00 1.488240000000000007e+00 4.467550000000000132e+00 1.060859999999999914e+01 1.476839999999999931e+00 1.333269999999999955e+00 1.012449999999999939e+01 4.339870000000000339e+00 4.472349999999999604e+00 7.546179999999999666e+00 4.552279999999999660e+00 7.434669999999999668e+00 7.434639999999999915e+00 1.456590000000000051e+00 1.041980000000000040e+01 1.041980000000000040e+01 1.450569999999999915e+00 7.453649999999999665e+00 1.048980000000000068e+01 4.496430000000000149e+00 1.062630000000000052e+01 7.550650000000000084e+00 4.554960000000000342e+00 1.361799999999999899e+00 1.361790000000000056e+00 7.425849999999999618e+00 4.328059999999999796e+00 4.328059999999999796e+00 7.380049999999999777e+00 1.332160000000000011e+00 4.260169999999999568e+00 1.019229999999999947e+01 4.272400000000000198e+00 1.335979999999999945e+00 1.022150000000000070e+01 7.479569999999999830e+00 1.386169999999999902e+00 7.558779999999999610e+00 1.016820000000000057e+01 4.282099999999999795e+00 7.301689999999999792e+00 7.502989999999999604e+00 4.446740000000000137e+00 1.063870000000000005e+01 1.026559999999999917e+01 1.351849999999999996e+00 1.034290000000000020e+01 1.389100000000000001e+00 7.495359999999999800e+00 7.574740000000000251e+00 4.470040000000000013e+00 1.061459999999999937e+01 7.622169999999999668e+00 1.358649999999999913e+00 1.031729999999999947e+01 1.039489999999999981e+01 4.501360000000000028e+00 7.595119999999999649e+00 1.076939999999999920e+01 7.332069999999999865e+00 7.332069999999999865e+00 7.409720000000000084e+00 1.016779999999999973e+01 1.016779999999999973e+01 7.301370000000000360e+00 7.465209999999999901e+00 1.050600000000000023e+01 1.058510000000000062e+01 1.036330000000000062e+01 7.363769999999999705e+00 1.044130000000000003e+01 4.696659999999999613e+00 1.656789999999999985e+00 1.735829999999999984e+00 1.628230000000000066e+00 4.615689999999999849e+00 1.705889999999999906e+00 4.706730000000000302e+00 4.706739999999999924e+00 4.785949999999999704e+00 1.678590000000000027e+00 1.678579999999999961e+00 4.838530000000000442e+00 1.069379999999999953e+01 1.644090000000000051e+00 1.722520000000000051e+00 7.499900000000000233e+00 4.553009999999999557e+00 1.682730000000000059e+00 1.051829999999999998e+01 4.584179999999999922e+00 4.661319999999999908e+00 7.792370000000000019e+00 1.668749999999999956e+00 4.810170000000000279e+00 4.763359999999999594e+00 7.846409999999999663e+00 1.760469999999999979e+00 1.655510000000000037e+00 1.076810000000000045e+01 1.734480000000000022e+00 4.772700000000000387e+00 1.095090000000000074e+01 4.853019999999999889e+00 1.674230000000000107e+00 7.817980000000000373e+00 4.825990000000000002e+00 1.097569999999999979e+01 7.879599999999999937e+00 1.767919999999999936e+00 7.633779999999999788e+00 1.063330000000000020e+01 1.712769999999999904e+00 1.054439999999999955e+01 1.054439999999999955e+01 4.672880000000000145e+00 7.810489999999999711e+00 7.810500000000000220e+00 4.821369999999999933e+00 4.573940000000000339e+00 1.613510000000000000e+00 7.611390000000000100e+00 1.676830000000000043e+00 4.753499999999999837e+00 7.910129999999999661e+00 4.565489999999999604e+00 4.565509999999999735e+00 1.055230000000000068e+01 1.671890000000000098e+00 1.671880000000000033e+00 1.095439999999999969e+01 1.088630000000000031e+01 1.673680000000000057e+00 7.895260000000000389e+00 7.709039999999999893e+00 4.679979999999999585e+00 7.787810000000000343e+00 1.075249999999999950e+01 4.686280000000000001e+00 1.083140000000000036e+01 7.510900000000000354e+00 1.608479999999999910e+00 1.053880000000000017e+01 4.669059999999999988e+00 7.691099999999999604e+00 7.769669999999999632e+00 1.683280000000000109e+00 1.094880000000000031e+01 7.940610000000000390e+00 4.541419999999999568e+00 1.042019999999999946e+01 1.049660000000000082e+01 1.678930000000000033e+00 7.839970000000000105e+00 1.100060000000000038e+01 1.049450000000000038e+01 7.534189999999999721e+00 7.611159999999999926e+00 7.794679999999999609e+00 1.085740000000000016e+01 7.874340000000000117e+00 1.095059999999999967e+01 1.095059999999999967e+01 1.103090000000000082e+01 7.608100000000000307e+00 7.608120000000000438e+00 1.067520000000000024e+01
1.386090000000000044e+00 1.415079999999999893e+00 1.500000000000000000e+00 4.285730000000000040e+00 4.286170000000000258e+00 1.408860000000000001e+00 1.420809999999999906e+00 4.518469999999999764e+00 4.608749999999999680e+00 4.327079999999999593e+00 1.357760000000000078e+00 4.385659999999999670e+00 7.514389999999999681e+00 1.407459999999999933e+00 1.489980000000000082e+00 1.033409999999999940e+01 4.352590000000000181e+00 1.431089999999999973e+00 7.554100000000000037e+00 4.472010000000000041e+00 4.573129999999999917e+00 1.048290000000000077e+01 1.397869999999999946e+00 4.489250000000000185e+00 1.425100000000000033e+00 7.608869999999999578e+00 1.491440000000000099e+00 4.471960000000000157e+00 1.060890000000000022e+01 1.468460000000000099e+00 1.346319999999999961e+00 1.012650000000000006e+01 4.356060000000000265e+00 4.487420000000000186e+00 7.560120000000000395e+00 4.539369999999999905e+00 7.448959999999999582e+00 7.447049999999999947e+00 1.455330000000000013e+00 1.040639999999999965e+01 1.042629999999999946e+01 1.461680000000000090e+00 7.446500000000000341e+00 1.048070000000000057e+01 4.512550000000000061e+00 1.062010000000000076e+01 7.551199999999999690e+00 4.561560000000000059e+00 1.367280000000000051e+00 1.373629999999999907e+00 7.421249999999999680e+00 4.332709999999999617e+00 4.324559999999999960e+00 7.388539999999999885e+00 1.322049999999999947e+00 4.262190000000000367e+00 1.018529999999999980e+01 4.275999999999999801e+00 1.328629999999999978e+00 1.022879999999999967e+01 7.492700000000000138e+00 1.390670000000000073e+00 7.561720000000000219e+00 1.017060000000000031e+01 4.271390000000000242e+00 7.291909999999999670e+00 7.504229999999999734e+00 4.435100000000000264e+00 1.062700000000000067e+01 1.026229999999999976e+01 1.351560000000000095e+00 1.033569999999999922e+01 1.391999999999999904e+00 7.483550000000000146e+00 7.582869999999999777e+00 4.473049999999999748e+00 1.060999999999999943e+01 7.615269999999999762e+00 1.373920000000000030e+00 1.030959999999999965e+01 1.039400000000000013e+01 4.505679999999999907e+00 7.606119999999999770e+00 1.078299999999999947e+01 7.333330000000000126e+00 7.340539999999999843e+00 7.417379999999999640e+00 1.016269999999999918e+01 1.016360000000000063e+01 7.300390000000000157e+00 7.474070000000000213e+00 1.050699999999999967e+01 1.057850000000000001e+01 1.035989999999999966e+01 7.359020000000000117e+00 1.044609999999999950e+01 4.688220000000000276e+00 1.656139999999999946e+00 1.740480000000000027e+00 1.617119999999999891e+00 4.605179999999999829e+00 1.704970000000000097e+00 4.709780000000000300e+00 4.706310000000000215e+00 4.789060000000000095e+00 1.668080000000000007e+00 1.683850000000000069e+00 4.826870000000000438e+00 1.069969999999999999e+01 1.650490000000000013e+00 1.732979999999999965e+00 7.504159999999999719e+00 4.549999999999999822e+00 1.675380000000000091e+00 1.052500000000000036e+01 4.596280000000000143e+00 4.656959999999999766e+00 7.790000000000000036e+00 1.660139999999999949e+00 4.800930000000000142e+00 4.757799999999999585e+00 7.853100000000000414e+00 1.750050000000000106e+00 1.654940000000000078e+00 1.077159999999999940e+01 1.739740000000000064e+00 4.769449999999999967e+00 1.094890000000000008e+01 4.845559999999999867e+00 1.663629999999999942e+00 7.824440000000000062e+00 4.830160000000000231e+00 1.098189999999999955e+01 7.872279999999999944e+00 1.777039999999999953e+00 7.632979999999999876e+00 1.062700000000000067e+01 1.708399999999999919e+00 1.055199999999999960e+01 1.054690000000000083e+01 4.681630000000000180e+00 7.810609999999999609e+00 7.813159999999999883e+00 4.830610000000000070e+00 4.583759999999999835e+00 1.608309999999999906e+00 7.617079999999999629e+00 1.680679999999999952e+00 4.754249999999999865e+00 7.911139999999999617e+00 4.564939999999999998e+00 4.571390000000000065e+00 1.056020000000000003e+01 1.660250000000000004e+00 1.663769999999999971e+00 1.094539999999999935e+01 1.087880000000000003e+01 1.679089999999999971e+00 7.883659999999999890e+00 7.717620000000000147e+00 4.682520000000000238e+00 7.788750000000000284e+00 1.074189999999999934e+01 4.677900000000000169e+00 1.082339999999999947e+01 7.502670000000000172e+00 1.600400000000000045e+00 1.053289999999999971e+01 4.673809999999999576e+00 7.687109999999999665e+00 7.769969999999999821e+00 1.679890000000000105e+00 1.095139999999999958e+01 7.936130000000000351e+00 4.536819999999999631e+00 1.041150000000000020e+01 1.050859999999999950e+01 1.689389999999999947e+00 7.827849999999999753e+00 1.100120000000000076e+01 1.050360000000000049e+01 7.537429999999999630e+00 7.609600000000000364e+00 7.794030000000000236e+00 1.085430000000000028e+01 7.868240000000000123e+00 1.095190000000000019e+01 1.095069999999999943e+01 1.103369999999999962e+01 7.603889999999999816e+00 7.614060000000000272e+00 1.066259999999999941e+01
