-1.051326288454603309e+04
-1.051077724311590464e+04
-1.051124747522742655e+04
