3.813542481153866515e-01 3.097754046476900669e+00 3.461284379050854731e+00 5.241219501235794276e-01 1.079938917332939230e+00 1.106146686056171502e+00 2.925642858332410667e-01 -9.460476918718647987e-02 -2.712539544078162446e-01 -2.041414770822414515e-01 5.971999009993291807e+00 -2.508831040767944484e-02 9.011408040917781581e-02 1.808303646003235787e+00 5.878117749235127754e-01 3.520662978073297450e-02 5.285643021621935222e-01 3.177671131756351297e+00 -1.397122030136974113e-01 1.691328222447735230e-01 8.626051099404020636e-03 6.065103797597350965e-01 1.524838494250707610e+00 4.894089721494292999e-01 1.923463870728280956e+00 -9.065627464340803021e-01 4.874541109953611340e+00 9.324362717466055939e-02 -2.754304543797601590e-01 6.498854042775191742e-01 2.065896815105134621e-01 3.792363790210196761e+00 6.680517907597692817e-01 3.789250698504934012e-01 -1.403400664051950020e-01 6.439944927189634738e-01 3.539324044803393576e-01 -2.943234346148244085e-01 1.640699601696973930e+00 -4.785018383271069098e-01 3.337806121384887664e-02 4.223094531837773502e+00 4.749136067580074783e-01 2.811922965597197233e-01 1.406974497443357064e-01 -6.474140599208136337e-02 -5.652246336691866269e-01 5.724355495897196638e-02 1.269167481870690617e+00 5.695381734395205342e+00 -2.176906765110460107e-01 8.560035454686196754e-01 8.653695600572661739e-01 8.289637677630422585e-01 9.187261212600297267e-01 3.186995494473817137e-01 3.860892945376538599e+00 7.722416325247734026e-01 1.383824798817779422e+00 1.088365965047814354e+00 -2.651532408314627998e-01 4.620660613813720730e+00 -6.360970922549010753e-01 2.037484582533130251e+00 1.098960966946599616e+00 7.055636716331179503e-01 -3.533292236791709118e-01 2.299106156064998074e-01 -3.729493118876812674e-01 -5.839391793449965062e-01 4.141941774379969132e+00 7.532720334155623698e-01 2.475062171873884387e-01 7.341486823374261395e-01 4.769596906521672564e-01 1.605242546468526044e-01 -9.783443470969180877e-01 -1.756423412234534021e-01 1.482983505920693057e+00 1.111183991365844559e+00 1.279938347225571205e+00 -5.732377337754169383e-02 -1.213505669575311474e+00 -1.044038603919830832e+00 5.048741576525336283e-01 5.505024969791159073e-01 8.242663622910268995e-01 2.352163440860020494e+00 8.109701594130961366e-01 8.883295112696887319e-01 -1.389280165501152187e-01 -6.719475262667191640e-01 1.123232694990889818e-01 4.172180518636331437e-01 6.532304094877501299e-01 2.541962276078502114e-01 -4.635133353497340736e-02 -7.650831671086896768e-02 -7.770645078309617038e-01 -4.547895823302772200e-01 4.265583554206867634e-01 4.854232480319043419e-01 -4.016042565979220380e-01 1.993643674122883569e-01 -9.848975748293058441e-01 -6.741566181011775516e-01 5.448887503411310729e-02 -1.088959889877609388e+00 -1.271157515715977793e+00 1.383824284597147680e-01 4.467497427511903790e-02 -4.712780668907773363e-02 4.011152327770258208e-01 7.301804417213844101e-01 2.955200260251560351e-01 2.053689217304845160e-01 -5.854756705929857752e-01 -7.332158861112372250e-01 4.856942423048931090e-01 -4.140077724589487640e-01 -1.553907900790224839e-01 -8.562524282544384802e-01 7.675941064540483527e-01 3.871351164587250038e-01 -3.472625000865832146e+00 -1.395306831306518114e-01 7.628000275032438549e-02 -6.441636713068444209e+00 3.024908009106118123e-01 3.819872537132028567e-01 -3.685503600703958771e+00 1.855025218393146214e-01 -2.855984988879142872e+00 -1.355919587788786407e+00 -7.770182279740947551e-02 -4.903494816850960669e-01 -1.856413614099160725e+00 3.653619864646286963e-01 -1.502161878606438072e-01 -1.098104789594557262e+00 -6.446218418898291835e-01 -6.262662222150555680e-01 -1.004660616373472370e+00 -1.024899826222738675e+00 1.571370833448094417e-01 8.227087879971315409e-01 -5.980704765290633107e-01 -4.527542970693865243e-01 1.198046654719789605e-01 -4.080018811671097367e+00 3.044371260021912495e-01 2.298000581706504675e-01 -6.260271096212421948e-01 -1.791251575630219972e-01 -1.579300115591332210e-01 -4.098886595095200924e+00 -1.999291359322570960e+00 -6.241296354896891385e-01 -1.683979495397864401e+00 -1.993500206566595656e+00 -4.127119364666687051e-01 -4.067732023893502191e-01 -1.025867589451894046e+00 -1.034015415363670892e-01 -3.250383985983482216e+00 -4.628849577376046298e-01 6.400087686014385158e-01 5.313647477232875949e-02 -7.257581442874126987e-01 -2.697771127531224389e-01 -2.936965996645904964e-01 2.994255317241112380e-01 -6.291276029210249199e+00 -1.233391609850492010e+00 4.523259512830494766e-01 5.405435860019381505e-02 -3.723625861467321635e-02 2.050099957294482245e-01 -1.724435803609226880e+00 -5.492615797503181518e+00 6.261973166503868871e-02 -9.475039647012845068e-01 1.864188630052840967e-01 -1.591105078636877002e+00 -4.814060021896466424e+00 -2.523347489205272631e-01 -3.810009785413008276e-01 -3.813935859937237272e+00 -3.936919951575989174e+00 2.466716371018842259e-03 -1.333924314481727824e-01 -1.452984902699409497e+00
9.111989596509045310e-04 3.593489475060068994e+00 4.838403740829217092e+00 5.404381707724073003e-01 9.611585793596196803e-01 9.048092540794471228e-01 3.541051826126433988e-01 -8.314587662688131819e-02 -1.664727589161763555e-01 -3.336844528803314947e-01 7.187062253862498196e+00 -5.032163103354261313e-01 9.190716775246378367e-02 2.312602904989353281e+00 7.858761925784663038e-01 -5.580116608661261218e-02 4.033670049239284072e-01 3.320346788271441696e+00 -1.962219651310092017e-01 1.654880264061698858e-01 9.316957940367312507e-02 5.827945242184824348e-01 1.856214610714632007e+00 3.419119829900461593e-01 2.261517656317502567e+00 -1.054512763970129496e+00 5.434065093698028370e+00 1.735443210454761798e-01 -3.212408278100198356e-01 4.812452053980647571e-01 2.065716837883984636e-01 3.832360385176679873e+00 7.482789510802293487e-01 5.683567515378286084e-01 -6.644296206289673767e-02 5.743407370307506143e-01 5.242777589750321487e-01 -2.424555421412873391e-01 1.934093839630032452e+00 -7.699152983862516120e-01 3.938775773836361571e-02 5.001292381941348175e+00 4.232837984370203532e-01 2.319623559276098868e-01 2.868816336305874959e-01 -1.451439155480046816e-01 -6.306664081618573725e-01 8.929235583947006671e-02 1.249180754351666423e+00 6.854925605084057239e+00 -5.205208630386836122e-01 8.437465824876722031e-01 8.720600846983598275e-01 9.191112725132908334e-01 8.932279770087601101e-01 4.160569416768996609e-01 3.908049034200368421e+00 9.116000517437529149e-01 1.373753273522224871e+00 1.162811742804304105e+00 -3.658515245061567112e-01 5.384330702626066945e+00 -6.932167200415955133e-01 2.074678160835359275e+00 9.485298348618392827e-01 6.700886186825555368e-01 -3.275328314614241454e-01 1.940432123138303711e-01 -5.052341120948337094e-01 -7.247189043904292971e-01 4.591019908152210505e+00 6.745988478445746894e-01 2.366314792648730181e-01 6.171722303406615984e-01 5.527516980228591725e-01 2.156790453992207812e-01 -1.022052586584145661e+00 -2.314517348401757268e-01 1.751703895275348977e+00 1.098669403848336668e+00 1.274719522032852659e+00 -5.432689553507810687e-02 -1.077286053093188034e+00 -8.492158331281050021e-01 5.008668362684707276e-01 6.410300107763068356e-01 8.439111330898663166e-01 2.286839422892045004e+00 7.550286110939865569e-01 8.296080862147592327e-01 -1.445217085834575033e-01 -6.311281782892651515e-01 6.235182271584109592e-02 4.210397395995955638e-01 6.272607249170675248e-01 2.775654984432311401e-01 -1.052671339887449042e-01 -1.619589302097340991e-02 -6.109218785604377810e-01 -5.732577883800592522e-01 2.896018607731118966e-01 4.455053288220959806e-01 -3.954994292565137126e-01 1.475211575290803767e-01 -1.042121589404267246e+00 -9.004872296686877720e-01 4.768984983969762337e-02 -1.224512562200214205e+00 -1.063037513605057605e+00 2.723600429869409978e-01 2.430083293205337613e-01 4.250290632615435354e-02 3.219879903881083250e-01 6.807602394554873593e-01 3.415931661982947731e-01 2.907881677708064050e-01 -5.607370302149691232e-01 -6.910950457145528247e-01 3.998646482003492264e-01 -4.816714943018744477e-01 -3.941645124962124824e-01 -7.733209816310415707e-01 5.482322128894664415e-01 4.340952872218172276e-01 -4.037617721030051676e+00 -1.316595079188141171e-01 4.161957812475010621e-01 -7.675423758584834388e+00 4.945239247745125133e-01 2.399240339706544267e-01 -3.688004769857311960e+00 1.870086740700242778e-01 -3.168243924912513165e+00 -1.542374446238300445e+00 5.374325511792021892e-02 -4.348038832525164543e-01 -2.348147891945847832e+00 2.776544586125423986e-01 -1.745701912060312055e-01 -1.387471137318278647e+00 -5.745309986645377176e-01 -5.905931943212281432e-01 -9.399243525877096772e-01 -9.972419553176691265e-01 1.708117526077871651e-01 8.386830519257746364e-01 -6.311374342606386190e-01 -4.809644409330708914e-01 2.266170324594546370e-01 -4.210837568856825364e+00 3.142947355148931754e-01 2.854963232483642699e-01 -4.188589298998893207e-01 -1.453290349754732536e-01 -9.539821162214209838e-02 -5.409269889050507985e+00 -2.218761753440474660e+00 -4.209502652096524522e-01 -1.762684048427394901e+00 -2.014238724649394907e+00 -4.826665112245180356e-01 -3.289993887034807774e-01 -1.015941588595155043e+00 -9.842697114378082257e-02 -3.423044361762795695e+00 -5.171912844474084725e-01 5.700444236515838092e-01 -1.834502672975726612e-01 -6.998815336510961771e-01 -2.753579492706683118e-01 -2.903942747668037949e-01 4.849239397983710065e-01 -7.436136843977051214e+00 -1.019042853225885725e+00 4.072077188232695599e-01 -1.381037208772481761e-01 2.844740526322321883e-01 4.086166833545582522e-01 -1.701498992325238158e+00 -6.088381537160260315e+00 1.001316125383873434e-01 -8.844990817829847529e-01 1.090327716758349441e-01 -1.396296191802211428e+00 -5.551382988194347057e+00 -1.372912522789138390e-01 -3.173348078904327796e-01 -3.965245280861209753e+00 -4.543016897947711463e+00 -5.953286521200009535e-02 -5.973032593463324658e-02 -1.795408020997521836e+00
1.636172917474734978e-01 3.455533849724795381e+00 4.298644341290859927e+00 5.362035638690635375e-01 1.028596044124528097e+00 1.017967617884672382e+00 3.295886855475891331e-01 -9.433583179672519470e-02 -2.221829079509502480e-01 -3.625764533018583924e-01 7.018722359832048951e+00 -3.635863826228258877e-01 9.194316319669378068e-02 2.111253645938095946e+00 6.879202475334665889e-01 -2.532999410465231610e-02 4.537313162699151414e-01 3.367832492520291598e+00 -1.664023106896119208e-01 1.644611278043511260e-01 4.831565634866779452e-02 6.092120949595126733e-01 1.718570088861632206e+00 4.141584391040829538e-01 2.113606719549474544e+00 -1.016756628296648701e+00 5.465985339420562639e+00 1.355557576463959080e-01 -2.957632523840245109e-01 5.615962928908024843e-01 1.849481919981726119e-01 3.966313317113576264e+00 6.791733545855761500e-01 4.768697020415921806e-01 -1.075060506198509958e-01 6.141326721857539583e-01 4.424313178848537920e-01 -2.745670779388719729e-01 1.828999997994223081e+00 -6.825476703718228455e-01 -1.053329542296226051e-02 4.814361355186733249e+00 4.605066873152652285e-01 2.574317038234955612e-01 2.061963027271427329e-01 -1.043909020320602787e-01 -6.053646961919573188e-01 7.432442168737156407e-02 1.219439775666943060e+00 6.663613932766651260e+00 -4.834779513815886665e-01 8.610809599875772768e-01 8.684055186677508420e-01 8.825090479376974661e-01 8.869071770019717471e-01 3.256075894157508532e-01 4.037844492328700241e+00 8.486954418486654106e-01 1.392668879465090770e+00 1.141046840340317781e+00 -3.429579077552437072e-01 5.285639422077511362e+00 -7.009876222302209303e-01 2.094924569773471301e+00 1.023939262082429691e+00 6.841988328207162517e-01 -3.417227497975227624e-01 2.128050662877710719e-01 -4.408634591783213152e-01 -7.120947878783359108e-01 4.511155787597841638e+00 6.709088005903677265e-01 2.425964385944161528e-01 6.845325620107916009e-01 5.244052856917326144e-01 1.875635181317981681e-01 -1.011215386767755797e+00 -1.994795528338243473e-01 1.619908633109724772e+00 1.112058680660633625e+00 1.282020426563960758e+00 -5.355402192539678030e-02 -1.153393791931840218e+00 -9.481590817862702858e-01 5.075301072160759430e-01 5.972466950768280380e-01 8.477395056940429940e-01 2.352133101842741159e+00 7.817223183143240384e-01 8.535558552609794347e-01 -1.489846294473458621e-01 -6.551093716765562514e-01 9.412860088208674370e-02 4.191978012962832567e-01 6.409955579939724535e-01 2.690392061464074169e-01 -7.320547759245037145e-02 -5.577854037881089383e-02 -6.895837512775244704e-01 -5.218362394149742567e-01 3.539791985578383815e-01 4.685830365592139612e-01 -4.024434646691128492e-01 1.760573172733621294e-01 -1.026243484733781575e+00 -7.899349360257148511e-01 4.962486207737614591e-02 -1.156936257864704443e+00 -1.178359717829137621e+00 2.078654628981510821e-01 1.492067727603081650e-01 -6.574824998925771040e-03 3.638203530103209515e-01 7.100954980616751566e-01 3.164853154066047392e-01 2.509633224953641828e-01 -5.848174681842084333e-01 -7.192398835579911776e-01 4.457434129746458695e-01 -4.480610053624261013e-01 -2.759189639800244676e-01 -8.153621178297881800e-01 6.587783358848571247e-01 4.273605396063839268e-01 -3.875316319879499982e+00 -1.277930829878800578e-01 3.285335048110181733e-01 -7.493841140622166996e+00 4.902353247048237828e-01 3.321340776752820800e-01 -3.837434714371846134e+00 2.102303635840622187e-01 -3.071922687256187778e+00 -1.446221358728591921e+00 -1.438789327936360572e-03 -4.642970075926843854e-01 -2.151172079368536494e+00 3.231377877209409277e-01 -1.667159852750448035e-01 -1.268185320463843802e+00 -6.188043666261763276e-01 -6.112658921631501929e-01 -9.745884796018334795e-01 -1.024160376954128315e+00 1.639057695219453825e-01 8.475790688569035947e-01 -6.235295400123117560e-01 -4.502978651110048358e-01 2.071460682341829118e-01 -4.301754861892964854e+00 3.102807292626161284e-01 2.568326367873818850e-01 -5.337872411199667821e-01 -1.463739312994070396e-01 -1.156970710647038658e-01 -4.910235735113976929e+00 -2.122129926522506871e+00 -5.162266065420443306e-01 -1.727736585845118134e+00 -2.048266760741911163e+00 -4.499337969036499851e-01 -3.619249357612953633e-01 -1.008821689726460802e+00 -8.833230591979272794e-02 -3.445362565626660878e+00 -4.937983594629621331e-01 6.089606410705344919e-01 -6.451926267911907431e-02 -7.205783998627154352e-01 -2.722428006828775948e-01 -2.951441307432684513e-01 4.531121946291591374e-01 -7.249312775113864404e+00 -1.040874090151381770e+00 4.270268104163085776e-01 -5.302386045395203473e-02 1.197553002913206432e-01 3.508918178841679558e-01 -1.703853608598511871e+00 -6.101001539907299431e+00 8.021019103960874697e-02 -9.312623060440755607e-01 1.462597743191347277e-01 -1.488975204723092638e+00 -5.447310902954037637e+00 -1.565842961655629917e-01 -2.451099490429340111e-01 -3.976404897013774420e+00 -4.378695638155225112e+00 -2.933320172366037787e-02 -9.647344696335544145e-02 -1.666587010966559257e+00
