1.162650000000000006e+01 1.623669999999999947e+00 4.405050000000000132e+00 4.549190000000000289e+00 4.987119999999999997e+00 1.607720000000000038e+00 1.544329999999999870e-01 3.828699999999999992e+00 5.208219999999999850e+00 3.807560000000000056e+00 4.043870000000000076e+00 4.899790000000000312e+00 5.045250000000000234e+00 2.113109999999999822e+00 3.787830000000000030e+00 8.430730000000000501e+00 7.468630000000000102e+00 1.156850000000000023e+01 1.095620000000000083e+01 6.309239999999999959e+00 4.872489999999999877e-01 9.186199999999999477e+00 4.392809999999999881e+00 3.659330000000000194e+00 2.376660000000000217e+00 6.025890000000000413e+00 3.079200000000000159e+00 5.274529999999999497e-01 1.080310000000000059e+01 4.036279999999999646e+00 1.122970000000000024e+00 8.352320000000000633e+00 4.926520000000000010e+00 4.267900000000000027e+00 8.624399999999999622e+00 2.234280000000000044e+00 4.132069999999999688e+00 1.035369999999999990e+01 9.965419999999999945e+00 8.743840000000000501e+00 1.035720000000000063e+01 2.936549999999999994e+00 5.857800000000000118e+00 9.614280000000000825e+00 1.154940000000000033e+01 9.408759999999999124e+00 7.458730000000000082e+00 6.654690000000000438e+00 2.840619999999999923e+00 3.895219999999999794e-01 9.468249999999999389e+00 1.999589999999999979e+00 5.198220000000000063e+00 6.305629999999999846e+00 6.726480000000000237e-01 4.725060000000000038e+00 1.099319999999999986e+01 4.774359999999999715e+00 1.783439999999999914e+00 1.199859999999999971e+01 8.274300000000000210e+00 1.991840000000000055e+00 6.801720000000000432e+00 1.027490000000000059e+01 3.640800000000000036e+00 7.084249999999999936e+00 5.781450000000000422e+00 5.891580000000000261e+00 9.393449999999999633e+00 5.867980000000000196e+00 1.187379999999999924e+01 1.094130000000000003e+01 3.377720000000000056e+00 8.859840000000000160e+00 8.118520000000000181e+00 4.635790000000000077e+00 6.070320000000000160e-01 7.458770000000000344e+00 1.193030000000000079e+01 1.144289999999999985e+01 1.022269999999999968e+01 6.710810000000000386e+00 5.022100000000000009e+00 5.381390000000000340e-01 3.552700000000000191e+00 6.311320000000000263e+00 7.948889999999999567e+00 8.418110000000000426e+00 1.056729999999999947e+01 9.504519999999999413e+00 1.043099999999999916e+01 8.681689999999999685e+00 8.553110000000000213e+00 1.173290000000000077e+01 8.413690000000000779e+00 1.128989999999999938e+01 3.053720000000000212e+00 1.749919999999999920e+00 2.262500000000000178e+00 5.558250000000000135e-01 4.259159999999999613e+00 1.484669999999999934e+00 5.631479999999999819e+00 6.328579999999999650e+00 3.908879999999999910e+00 2.740969999999999906e+00 1.143769999999999953e+00 5.351009999999999600e+00 1.088749999999999929e+01 1.209970000000000034e+01 1.985280000000000100e-01 7.758619999999999628e+00 2.610840000000000050e+00 1.171559999999999935e+00 1.139080000000000048e+01 5.862870000000000026e+00 4.151360000000000383e+00 8.827249999999999375e+00 1.312170000000000059e+00 3.640610000000000124e+00 4.392839999999999634e+00 7.340580000000000105e+00 1.214830000000000076e+01 5.708090000000000330e+00 1.074080000000000013e+01 4.577790000000000248e+00 6.982940000000000147e+00 8.327619999999999578e+00 5.597360000000000113e+00 3.483709999999999862e+00 7.714159999999999684e+00 5.301789999999999559e+00 4.215289999999999870e-01 9.455989999999999895e+00 1.414740000000000109e+00 6.086529999999999774e+00 1.135069999999999979e+01 2.349349999999999827e+00 1.031850000000000023e+01 1.057520000000000060e+01 5.576480000000000103e+00 8.768710000000000448e+00 7.400240000000000151e+00 3.177200000000000024e+00 5.846189999999999998e+00 2.808559999999999945e+00 6.325910000000000366e+00 1.944369999999999932e+00 3.101230000000000153e+00 8.177860000000000795e+00 3.540309999999999846e+00 4.018799999999999706e+00 1.165230000000000032e+01 1.401869999999999949e+00 1.768750000000000044e+00 1.159409999999999918e+01 -4.095100000000000129e-02 6.807990000000000430e-01 7.949600000000000222e+00 7.926499999999999879e+00 5.082429999999999559e+00 6.133980000000000210e+00 1.055240000000000045e+01 3.007089999999999819e+00 1.072669999999999924e+01 6.629710000000000214e+00 2.408520000000000216e+00 9.991860000000000852e+00 6.880359999999999587e+00 8.471209999999999241e+00 8.886049999999999116e+00 1.149080000000000101e+00 9.773339999999999250e+00 7.063380000000000436e+00 2.987940000000000040e+00 1.084750000000000014e+01 1.214910000000000068e+01 2.079880000000000173e+00 6.814560000000000173e+00 9.912119999999999820e+00 1.147039999999999971e+01 5.935579999999999856e+00 7.755349999999999966e+00 7.616509999999999891e+00 1.151779999999999937e+01 7.269849999999999923e+00 8.405770000000000408e+00 1.035749999999999993e+01 1.462340000000000029e-01 8.972250000000000725e+00 5.582060000000000244e+00 9.732450000000000045e+00
1.083269999999999955e+00 1.541260000000000074e+00 1.475770000000000026e+00 4.329299999999999926e+00 5.079489999999999839e+00 2.168369999999999909e+00 1.750040000000000040e+00 5.053379999999999761e+00 4.625390000000000335e+00 4.542489999999999917e+00 1.797749999999999959e+00 5.049990000000000201e+00 7.049750000000000405e+00 1.869620000000000060e+00 1.655699999999999950e+00 9.855620000000000047e+00 4.864889999999999937e+00 1.389760000000000106e+00 8.028539999999999566e+00 4.591199999999999726e+00 4.393760000000000332e+00 1.004069999999999929e+01 2.426969999999999850e+00 4.409679999999999822e+00 1.828000000000000069e+00 7.483200000000000074e+00 2.339809999999999945e+00 4.463350000000000151e+00 1.030240000000000045e+01 1.596649999999999903e+00 1.534920000000000062e+00 1.121090000000000053e+01 4.467279999999999696e+00 4.704769999999999897e+00 7.503809999999999647e+00 4.597529999999999895e+00 7.724639999999999951e+00 7.480459999999999887e+00 1.991049999999999986e+00 1.071909999999999918e+01 1.048440000000000083e+01 1.967179999999999929e+00 7.813200000000000145e+00 1.042130000000000045e+01 4.486729999999999663e+00 1.091050000000000075e+01 8.320100000000000051e+00 5.314829999999999721e+00 2.008000000000000007e+00 1.553779999999999939e+00 7.410120000000000040e+00 5.116329999999999600e+00 4.446030000000000371e+00 7.757760000000000211e+00 1.337339999999999973e+00 4.037519999999999776e+00 1.099029999999999951e+01 4.146560000000000024e+00 1.685170000000000057e+00 1.063729999999999976e+01 7.497040000000000148e+00 1.908730000000000038e+00 7.563119999999999621e+00 1.126800000000000068e+01 4.887159999999999727e+00 7.329869999999999663e+00 7.122659999999999769e+00 4.355339999999999989e+00 1.079809999999999981e+01 1.021959999999999980e+01 1.632079999999999975e+00 1.029800000000000004e+01 1.847269999999999968e+00 7.863080000000000069e+00 7.877239999999999576e+00 4.462049999999999628e+00 9.987009999999999721e+00 7.641560000000000130e+00 1.820400000000000018e+00 9.826470000000000482e+00 1.076389999999999958e+01 4.860330000000000261e+00 7.393570000000000420e+00 1.006910000000000061e+01 7.973010000000000375e+00 7.836319999999999730e+00 7.228439999999999976e+00 1.076580000000000048e+01 1.073629999999999995e+01 8.196440000000000836e+00 7.388279999999999959e+00 1.036899999999999977e+01 1.074380000000000024e+01 1.081230000000000047e+01 7.366999999999999993e+00 1.109089999999999954e+01 4.669740000000000002e+00 1.584540000000000060e+00 1.610610000000000097e+00 1.292329999999999979e+00 5.155039999999999623e+00 1.667519999999999891e+00 4.683530000000000193e+00 4.921009999999999884e+00 4.630589999999999762e+00 1.382290000000000019e+00 2.079390000000000072e+00 4.544459999999999944e+00 9.809540000000000148e+00 1.517980000000000107e+00 1.167450000000000099e+00 6.828710000000000058e+00 5.190549999999999997e+00 1.472460000000000102e+00 1.058639999999999937e+01 5.049649999999999750e+00 4.220799999999999663e+00 7.174610000000000376e+00 1.307460000000000067e+00 4.783100000000000129e+00 5.044730000000000381e+00 7.405610000000000248e+00 1.680430000000000090e+00 1.561269999999999936e+00 1.063419999999999987e+01 1.808829999999999938e+00 4.709679999999999644e+00 1.032349999999999923e+01 4.806540000000000035e+00 1.851560000000000095e+00 7.723639999999999617e+00 4.972839999999999705e+00 1.093309999999999960e+01 7.674629999999999619e+00 2.037690000000000001e+00 7.306169999999999831e+00 1.051670000000000016e+01 1.602170000000000094e+00 1.064080000000000048e+01 1.080790000000000006e+01 5.036629999999999718e+00 7.666089999999999627e+00 7.044699999999999740e+00 4.473849999999999660e+00 4.563460000000000072e+00 1.508729999999999905e+00 7.512050000000000338e+00 1.967649999999999899e+00 4.629150000000000098e+00 7.499229999999999841e+00 4.251769999999999605e+00 4.412130000000000329e+00 1.053389999999999915e+01 1.317909999999999915e+00 1.452939999999999898e+00 1.042709999999999937e+01 1.079509999999999970e+01 1.532909999999999995e+00 7.415860000000000340e+00 7.620230000000000281e+00 4.832709999999999617e+00 7.391390000000000349e+00 1.015189999999999948e+01 4.498610000000000220e+00 9.849119999999999209e+00 7.145830000000000126e+00 1.538389999999999924e+00 1.038920000000000066e+01 5.123179999999999623e+00 7.134159999999999613e+00 7.367210000000000036e+00 1.654360000000000053e+00 1.034769999999999968e+01 8.036319999999999908e+00 4.842850000000000321e+00 1.055770000000000053e+01 1.018249999999999922e+01 1.699670000000000014e+00 7.004299999999999748e+00 1.044280000000000008e+01 1.065419999999999945e+01 7.309709999999999930e+00 7.887950000000000017e+00 7.146959999999999980e+00 1.047979999999999912e+01 7.658579999999999721e+00 1.073150000000000048e+01 9.862700000000000244e+00 1.070470000000000077e+01 7.831819999999999560e+00 7.205960000000000143e+00 1.084370000000000012e+01
-2.567600000000000091e-02 6.570200000000000484e-01 2.898579999999999934e+00 3.603120000000000100e+00 5.807430000000000092e+00 1.228229999999999933e+00 1.642949999999999910e+00 5.226519999999999833e+00 4.462399999999999700e+00 4.583309999999999995e+00 1.905860000000000110e+00 4.253899999999999793e+00 6.053149999999999586e+00 1.493489999999999984e+00 9.972210000000000241e-01 9.641009999999999636e+00 4.003540000000000099e+00 2.234140000000000015e+00 9.049099999999999255e+00 3.291399999999999881e+00 4.779620000000000424e+00 1.015099999999999980e+01 1.606239999999999890e+00 3.641300000000000203e+00 1.610130000000000061e+00 7.380829999999999558e+00 2.187590000000000146e+00 4.611690000000000289e+00 1.083130000000000059e+01 2.456780000000000186e+00 1.262729999999999908e+00 1.132220000000000049e+01 5.116100000000000314e+00 5.389520000000000088e+00 7.251170000000000115e+00 4.600859999999999950e+00 8.775990000000000180e+00 9.543760000000000687e+00 8.811470000000000136e-01 8.950229999999999464e+00 1.197390000000000043e+01 2.671969999999999956e+00 8.851330000000000808e+00 9.762610000000000454e+00 5.400470000000000326e+00 1.171490000000000009e+01 8.147529999999999717e+00 5.165359999999999729e+00 1.361709999999999976e+00 1.388800000000000034e+00 8.125280000000000058e+00 4.042559999999999931e+00 4.369010000000000282e+00 7.029550000000000409e+00 1.041970000000000063e+00 3.393159999999999954e+00 1.003570000000000029e+01 3.876329999999999831e+00 5.763260000000000050e-01 1.013419999999999987e+01 7.421940000000000204e+00 8.937739999999999574e-01 7.476280000000000037e+00 1.087920000000000087e+01 4.528830000000000133e+00 7.728119999999999656e+00 7.161159999999999748e+00 4.954780000000000406e+00 9.322950000000000514e+00 9.054669999999999774e+00 1.670760000000000023e+00 1.014649999999999963e+01 3.503859999999999975e+00 7.386860000000000426e+00 9.180759999999999366e+00 5.279340000000000366e+00 9.719760000000000844e+00 7.549559999999999604e+00 1.428770000000000095e+00 1.035110000000000063e+01 1.056380000000000052e+01 5.301619999999999777e+00 6.331439999999999735e+00 1.072589999999999932e+01 7.871249999999999858e+00 6.034349999999999881e+00 5.975480000000000125e+00 1.136079999999999934e+01 1.071749999999999936e+01 8.425499999999999545e+00 7.699150000000000382e+00 8.573850000000000193e+00 1.002110000000000056e+01 1.096509999999999962e+01 7.722979999999999734e+00 1.033840000000000003e+01 3.375259999999999927e+00 1.162390000000000034e+00 1.418479999999999963e+00 7.473279999999999923e-01 4.206430000000000113e+00 2.253829999999999778e+00 4.469850000000000101e+00 4.726029999999999731e+00 4.115850000000000009e+00 1.287609999999999921e+00 2.268349999999999866e+00 5.049640000000000128e+00 1.055949999999999989e+01 1.757819999999999938e+00 7.025120000000000253e-01 6.443769999999999776e+00 4.291760000000000019e+00 1.652169999999999916e+00 1.105349999999999966e+01 5.270990000000000286e+00 4.817660000000000053e+00 7.383379999999999832e+00 9.168180000000000218e-01 4.365700000000000358e+00 4.934429999999999872e+00 8.002359999999999474e+00 1.941929999999999934e+00 1.811109999999999998e+00 1.064819999999999922e+01 1.714499999999999913e+00 4.865779999999999994e+00 1.093180000000000085e+01 5.825309999999999988e+00 1.957330000000000014e+00 8.246420000000000528e+00 4.502279999999999838e+00 1.131300000000000061e+01 9.067809999999999704e+00 2.103689999999999838e+00 6.824559999999999960e+00 1.147899999999999920e+01 6.874839999999999840e-01 1.079420000000000002e+01 1.207010000000000005e+01 5.802810000000000024e+00 7.708739999999999704e+00 8.196540000000000603e+00 3.459799999999999986e+00 4.335609999999999964e+00 1.677699999999999969e+00 7.731010000000000382e+00 1.122090000000000032e+00 4.275059999999999860e+00 7.108100000000000307e+00 4.068520000000000358e+00 4.559420000000000250e+00 9.527469999999999217e+00 6.934230000000000116e-01 9.059540000000000370e-01 1.101510000000000034e+01 1.093939999999999912e+01 1.488569999999999949e+00 7.997499999999999609e+00 7.878490000000000215e+00 3.783249999999999780e+00 7.043599999999999639e+00 1.064739999999999931e+01 4.278620000000000090e+00 1.025799999999999912e+01 6.605159999999999698e+00 2.663990000000000080e+00 1.065939999999999976e+01 6.202460000000000306e+00 7.066430000000000433e+00 7.856569999999999609e+00 1.464469999999999938e+00 1.064170000000000016e+01 7.418599999999999639e+00 5.130230000000000068e+00 1.062059999999999960e+01 1.015930000000000000e+01 1.106279999999999930e+00 7.140900000000000247e+00 1.114310000000000045e+01 1.101730000000000054e+01 7.747580000000000133e+00 7.742399999999999949e+00 8.302849999999999397e+00 1.076740000000000030e+01 7.880630000000000024e+00 1.110159999999999947e+01 1.050590000000000046e+01 1.120240000000000080e+01 8.636490000000000222e+00 6.119360000000000355e+00 3.790810000000000013e-01
1.015090000000000020e-01 3.075680000000000192e+00 9.242890000000000272e-01 2.639400000000000190e+00 5.384559999999999569e+00 1.767309999999999937e+00 2.020440000000000014e-01 5.355319999999999858e+00 7.436259999999999870e+00 2.870369999999999866e+00 1.047180000000000000e+00 4.003350000000000186e+00 2.851669999999999927e+00 2.705639999999999823e+00 2.305810000000000137e+00 7.576640000000000263e+00 4.608309999999999906e-01 1.047630000000000017e+01 1.151329999999999920e+01 5.089310000000000223e+00 1.143590000000000018e+01 9.330239999999999867e+00 1.107920000000000016e+00 5.079259999999999664e+00 3.173000000000000043e+00 8.361789999999999168e+00 1.317439999999999944e+00 2.883560000000000123e+00 1.180969999999999942e+01 6.008009999999999629e+00 2.931619999999999782e-01 1.141660000000000075e+01 5.877710000000000434e+00 8.114630000000000010e+00 5.336229999999999585e+00 1.542229999999999990e+00 1.136870000000000047e+01 9.195579999999999643e+00 1.989630000000000010e+00 4.091850000000000209e-01 1.219989999999999952e+01 2.971620000000000150e+00 1.013460000000000072e+01 7.426319999999999588e+00 3.685740000000000016e+00 1.345469999999999999e-01 6.821180000000000021e+00 5.589039999999999786e+00 4.879489999999999661e+00 3.181479999999999864e-01 1.118159999999999954e+01 2.689849999999999852e+00 5.861139999999999795e+00 7.182940000000000325e+00 1.740250000000000075e+00 4.052769999999999762e+00 9.908310000000000173e+00 5.002329999999999721e+00 9.821709999999999496e+00 2.875789999999999846e+00 7.128899999999999793e+00 -8.938400000000000512e-02 7.259439999999999671e+00 7.955339999999999634e+00 3.512270000000000003e+00 4.865800000000000125e+00 5.718510000000000204e+00 5.740820000000000256e+00 7.058510000000000062e+00 1.093369999999999997e+01 7.243389999999999551e-01 6.969999999999999633e-03 -1.100129999999999997e-01 8.841929999999999623e+00 6.800559999999999938e+00 3.894550000000000178e+00 9.704060000000000130e+00 7.519879999999999676e+00 6.715430000000000010e-01 9.778669999999999973e+00 1.180569999999999986e+01 5.136289999999999800e+00 5.406789999999999985e+00 1.951929999999999943e+00 6.643839999999999968e+00 7.461339999999999861e+00 9.167949999999999378e+00 9.862030000000000740e+00 7.033220000000000027e-01 7.503280000000000172e+00 6.617880000000000429e+00 1.034900000000000020e+01 6.777999999999999581e-01 1.055760000000000032e+00 7.094699999999999562e+00 1.101790000000000047e+00 3.648159999999999847e+00 3.395739999999999981e+00 1.129840000000000089e+01 1.725510000000000099e+00 4.423869999999999969e+00 4.203529999999999767e+00 4.600259999999999572e+00 4.897280000000000300e+00 4.549229999999999663e+00 1.202299999999999969e+01 1.623990000000000045e+00 4.882640000000000313e+00 9.025600000000000733e+00 2.200250000000000039e+00 1.363229999999999942e+00 6.946290000000000298e+00 5.061530000000000307e+00 1.093260000000000076e+01 1.088039999999999985e+01 6.966700000000000337e+00 9.606120000000000658e+00 5.421240000000000059e+00 2.155380000000000074e+00 2.187380000000000102e+00 7.196410000000000196e+00 7.763090000000000046e+00 1.082459999999999978e+00 2.154520000000000213e+00 2.642479999999999829e-01 1.471899999999999945e-02 6.067219999999999835e+00 9.849719999999999587e+00 5.862540000000000084e+00 3.647089999999999943e+00 7.569119999999999848e+00 4.086359999999999992e+00 1.738820000000000032e+00 9.843439999999999301e+00 3.791150000000000020e+00 7.815229999999999677e+00 1.172560000000000002e+01 3.075689999999999813e+00 9.849629999999999441e+00 1.006320000000000014e+01 4.295250000000000234e+00 1.056859999999999999e+01 4.601110000000000255e+00 3.716040000000000010e+00 3.843869999999999898e+00 1.384690000000000087e-01 8.703569999999999141e+00 3.274849999999999817e+00 3.193080000000000140e+00 7.311779999999999724e+00 4.466990000000000016e+00 6.346149999999999736e+00 9.827339999999999520e+00 1.208559999999999945e+01 2.302979999999999805e+00 8.399779999999999802e+00 9.405640000000000001e+00 3.730090000000000128e+00 7.178320000000000256e+00 6.068550000000000111e+00 1.525640000000000107e+00 5.384699999999999598e+00 9.232279999999999376e+00 2.783929999999999794e+00 1.044369999999999976e+01 6.135629999999999917e+00 2.653500000000000192e+00 9.536009999999999209e+00 7.950079999999999814e+00 6.267629999999999590e+00 4.754959999999999631e+00 -1.874599999999999878e-02 1.115240000000000009e+01 8.750519999999999854e+00 4.594100000000000072e+00 9.486019999999999897e+00 1.080550000000000033e+01 2.209700000000000220e+00 8.001559999999999562e+00 9.635910000000000863e+00 9.143219999999999459e+00 8.514060000000000628e+00 7.045720000000000205e+00 7.699790000000000134e+00 9.953409999999999869e+00 9.521850000000000591e+00 9.661559999999999704e+00 1.056470000000000020e+01 1.219860000000000078e+01 9.410800000000000054e+00 6.939589999999999925e+00 1.142040000000000077e+01
1.080499999999999933e-01 3.087299999999999933e+00 9.155630000000000157e-01 2.651619999999999866e+00 5.390100000000000335e+00 1.814519999999999911e+00 1.770879999999999954e-01 5.374959999999999738e+00 7.400769999999999627e+00 2.827760000000000051e+00 1.080889999999999906e+00 4.011250000000000426e+00 2.833460000000000090e+00 2.757559999999999789e+00 2.319040000000000212e+00 7.544529999999999959e+00 4.408549999999999969e-01 1.049719999999999942e+01 1.152250000000000085e+01 5.112070000000000114e+00 1.142839999999999989e+01 9.323980000000000601e+00 1.108190000000000008e+00 5.052730000000000388e+00 3.204689999999999817e+00 8.340320000000000178e+00 1.313099999999999934e+00 2.866760000000000197e+00 1.180509999999999948e+01 6.030380000000000074e+00 2.778939999999999744e-01 1.141949999999999932e+01 5.870750000000000135e+00 8.122350000000000847e+00 5.297119999999999607e+00 1.480439999999999978e+00 1.136050000000000004e+01 9.204359999999999431e+00 2.010310000000000041e+00 4.290550000000000197e-01 1.226130000000000031e+01 2.992080000000000073e+00 1.016499999999999915e+01 7.449010000000000353e+00 3.656250000000000000e+00 1.051060000000000050e-01 6.810290000000000177e+00 5.605139999999999567e+00 4.922229999999999883e+00 2.640370000000000217e-01 1.121759999999999913e+01 2.693760000000000154e+00 5.890469999999999651e+00 7.186490000000000045e+00 1.753880000000000106e+00 4.044929999999999914e+00 9.909760000000000346e+00 4.970170000000000421e+00 9.753579999999999472e+00 2.926849999999999952e+00 7.084500000000000242e+00 -1.214060000000000000e-01 7.286260000000000403e+00 7.959200000000000053e+00 3.474289999999999878e+00 4.818480000000000096e+00 5.679570000000000007e+00 5.763440000000000119e+00 7.007209999999999717e+00 1.094170000000000087e+01 7.103099999999999969e-01 -4.040500000000000341e-02 -1.364120000000000055e-01 8.835900000000000531e+00 6.788059999999999761e+00 3.879490000000000105e+00 9.729599999999999582e+00 7.510489999999999888e+00 6.732799999999999896e-01 9.795540000000000802e+00 1.181739999999999924e+01 5.176529999999999632e+00 5.411649999999999849e+00 1.931219999999999937e+00 6.595760000000000289e+00 7.428020000000000067e+00 9.164519999999999555e+00 9.876409999999999911e+00 6.855959999999999832e-01 7.522300000000000431e+00 6.589010000000000034e+00 1.038719999999999999e+01 6.639059999999999961e-01 1.055539999999999923e+00 7.072709999999999830e+00 1.154330000000000078e+00 3.636680000000000135e+00 3.408269999999999911e+00 1.130380000000000074e+01 1.741670000000000051e+00 4.425860000000000127e+00 4.209520000000000373e+00 4.643530000000000157e+00 4.903900000000000148e+00 4.562929999999999708e+00 1.204260000000000019e+01 1.621320000000000094e+00 4.856320000000000192e+00 9.030120000000000147e+00 2.189029999999999809e+00 1.354230000000000045e+00 6.951319999999999943e+00 5.094450000000000145e+00 1.091719999999999935e+01 1.088170000000000037e+01 6.957259999999999778e+00 9.590120000000000644e+00 5.399149999999999672e+00 2.159720000000000084e+00 2.176229999999999887e+00 7.186250000000000249e+00 7.759960000000000413e+00 1.086300000000000043e+00 2.148989999999999956e+00 2.620390000000000219e-01 -1.836199999999999985e-02 6.071019999999999861e+00 9.842599999999999127e+00 5.882249999999999979e+00 3.673830000000000151e+00 7.570400000000000240e+00 4.085670000000000357e+00 1.773500000000000076e+00 9.837809999999999278e+00 3.813790000000000013e+00 7.826609999999999623e+00 1.175029999999999930e+01 3.113840000000000163e+00 9.872080000000000410e+00 1.004850000000000065e+01 4.305970000000000297e+00 1.059580000000000055e+01 4.581680000000000419e+00 3.721029999999999838e+00 3.847269999999999968e+00 1.253330000000000000e-01 8.712690000000000268e+00 3.242690000000000072e+00 3.208899999999999864e+00 7.304280000000000328e+00 4.482920000000000016e+00 6.356499999999999595e+00 9.846099999999999852e+00 1.210079999999999956e+01 2.290500000000000203e+00 8.412919999999999732e+00 9.410539999999999239e+00 3.780769999999999964e+00 7.165110000000000312e+00 6.045689999999999564e+00 1.513929999999999998e+00 5.363830000000000098e+00 9.222780000000000200e+00 2.759189999999999809e+00 1.041130000000000067e+01 6.128320000000000434e+00 2.638149999999999995e+00 9.531710000000000349e+00 7.952829999999999622e+00 6.248520000000000074e+00 4.737330000000000041e+00 -3.173999999999999738e-02 1.115460000000000029e+01 8.780179999999999652e+00 4.597059999999999924e+00 9.496230000000000615e+00 1.080940000000000012e+01 2.185029999999999806e+00 8.013090000000000046e+00 9.617000000000000881e+00 9.128090000000000259e+00 8.503719999999999501e+00 7.027829999999999799e+00 7.704880000000000173e+00 9.947179999999999467e+00 9.530049999999999244e+00 9.665029999999999788e+00 1.057460000000000022e+01 1.222409999999999997e+01 9.418359999999999843e+00 6.939140000000000086e+00 1.144020000000000081e+01
9.598900000000000488e-02 3.062440000000000051e+00 9.346250000000000391e-01 2.626339999999999897e+00 5.377060000000000173e+00 1.717759999999999954e+00 2.252439999999999998e-01 5.331269999999999953e+00 7.475629999999999775e+00 2.914719999999999978e+00 1.011570000000000080e+00 3.996420000000000083e+00 2.867379999999999818e+00 2.655040000000000067e+00 2.286960000000000104e+00 7.608749999999999680e+00 4.805479999999999752e-01 1.045620000000000083e+01 1.150609999999999999e+01 5.065199999999999925e+00 1.144439999999999991e+01 9.333940000000000126e+00 1.107410000000000005e+00 5.104160000000000252e+00 3.143600000000000172e+00 8.385400000000000631e+00 1.321499999999999897e+00 2.901930000000000121e+00 1.181230000000000047e+01 5.988019999999999676e+00 3.077400000000000135e-01 1.140900000000000070e+01 5.887629999999999697e+00 8.108399999999999608e+00 5.370560000000000223e+00 1.607709999999999972e+00 1.137729999999999997e+01 9.185560000000000613e+00 1.970339999999999980e+00 3.896700000000000164e-01 1.213589999999999947e+01 2.944059999999999899e+00 1.010670000000000002e+01 7.401830000000000354e+00 3.714339999999999975e+00 1.639279999999999904e-01 6.831339999999999968e+00 5.566349999999999909e+00 4.837010000000000254e+00 3.715519999999999934e-01 1.114819999999999922e+01 2.687650000000000095e+00 5.832770000000000010e+00 7.179759999999999920e+00 1.720790000000000042e+00 4.062570000000000014e+00 9.902150000000000674e+00 5.034550000000000303e+00 9.889900000000000801e+00 2.825629999999999864e+00 7.173549999999999649e+00 -5.807699999999999668e-02 7.233249999999999957e+00 7.953079999999999927e+00 3.550419999999999909e+00 4.912329999999999863e+00 5.757740000000000080e+00 5.718490000000000073e+00 7.110369999999999635e+00 1.092800000000000082e+01 7.402469999999999883e-01 5.390000000000000346e-02 -8.414699999999999958e-02 8.852809999999999846e+00 6.816620000000000346e+00 3.909040000000000070e+00 9.679299999999999571e+00 7.529569999999999652e+00 6.711629999999999541e-01 9.762579999999999814e+00 1.179190000000000005e+01 5.098609999999999864e+00 5.402230000000000310e+00 1.971070000000000100e+00 6.696240000000000414e+00 7.495149999999999757e+00 9.167949999999999378e+00 9.847210000000000463e+00 7.201199999999999823e-01 7.487009999999999721e+00 6.646600000000000286e+00 1.031419999999999959e+01 6.914430000000000298e-01 1.050880000000000036e+00 7.117429999999999701e+00 1.047199999999999909e+00 3.661630000000000162e+00 3.382390000000000008e+00 1.129519999999999946e+01 1.707100000000000062e+00 4.422220000000000262e+00 4.198430000000000106e+00 4.559129999999999683e+00 4.888969999999999594e+00 4.537049999999999805e+00 1.200309999999999988e+01 1.630870000000000042e+00 4.910199999999999676e+00 9.020799999999999486e+00 2.211619999999999919e+00 1.373510000000000009e+00 6.941360000000000419e+00 5.027809999999999668e+00 1.094769999999999932e+01 1.088780000000000037e+01 6.977450000000000152e+00 9.610480000000000800e+00 5.444849999999999746e+00 2.150669999999999860e+00 2.198160000000000114e+00 7.203109999999999680e+00 7.768570000000000420e+00 1.081290000000000084e+00 2.158700000000000063e+00 2.654230000000000200e-01 4.866600000000000092e-02 6.063329999999999664e+00 9.857239999999999114e+00 5.842559999999999754e+00 3.620779999999999887e+00 7.568900000000000183e+00 4.087480000000000224e+00 1.704210000000000003e+00 9.849399999999999267e+00 3.768489999999999895e+00 7.802889999999999660e+00 1.170149999999999935e+01 3.036840000000000206e+00 9.827280000000000015e+00 1.007900000000000063e+01 4.285590000000000011e+00 1.054199999999999982e+01 4.620070000000000121e+00 3.709960000000000147e+00 3.840059999999999807e+00 1.511579999999999868e-01 8.692299999999999471e+00 3.307129999999999903e+00 3.177379999999999871e+00 7.319890000000000008e+00 4.448660000000000281e+00 6.333120000000000083e+00 9.809300000000000352e+00 1.207150000000000034e+01 2.315929999999999822e+00 8.387470000000000425e+00 9.400130000000000763e+00 3.679190000000000182e+00 7.191880000000000273e+00 6.090029999999999610e+00 1.537309999999999954e+00 5.405990000000000073e+00 9.243550000000000821e+00 2.809000000000000163e+00 1.047560000000000002e+01 6.142640000000000100e+00 2.668179999999999996e+00 9.538520000000000110e+00 7.945310000000000095e+00 6.287840000000000096e+00 4.773920000000000385e+00 -6.352000000000000007e-03 1.114969999999999928e+01 8.720959999999999823e+00 4.591099999999999959e+00 9.476760000000000517e+00 1.080219999999999914e+01 2.231619999999999937e+00 7.991019999999999790e+00 9.654130000000000322e+00 9.158670000000000755e+00 8.524409999999999599e+00 7.063690000000000246e+00 7.695199999999999818e+00 9.960290000000000532e+00 9.512840000000000629e+00 9.658830000000000027e+00 1.055429999999999957e+01 1.217239999999999966e+01 9.398329999999999629e+00 6.940500000000000114e+00 1.140980000000000061e+01