-1.049908361440428052e+04
-1.051179373560747081e+04
-1.050203362380559338e+04
-1.049889930682430168e+04
-1.049881056746168906e+04
-1.049906159581841348e+04
-1.050210568594205142e+04
-1.049856003318611329e+04
-1.049871145976732078e+04
-1.049868608403286453e+04
-1.051157439934787908e+04
