-1.776035787133566635e-01 -1.366307358772933078e+00 -5.281781224676687092e-01 -1.117167462638134490e+00 2.642548973876083229e-01 8.040806313874737654e-01 7.380541880363813423e-01 -1.706594918786942472e+00 1.234984151147353604e+00 -6.646203964833864442e-01 7.541441516071921702e-01 -7.846641745491789166e-01 1.292985667317683163e+00 -2.420292532374777317e-01 -4.001947778460014926e-01 3.397352870553947690e-02 -3.223345750939800580e-01 5.346598735322284357e-01 -3.899288771516050134e-01 5.559048989374072436e-01 -1.537365423063379866e-01 -9.350495409977036543e-01 -2.349227241052116444e-01 -2.813023397749371823e-01 2.883872716406652437e-01 -5.146366363483420026e-01 -6.420831346303503828e-01 3.981918884849177664e-01 1.902472356094607464e-01 -4.703339578106875973e-01 -1.970091854963193390e+00 1.141117288566882298e-01 -1.191886291550140697e+00 -2.837428308937313126e-01 -4.734532201635331672e-02 1.020522265983738602e-02 -5.633652118643911466e-01 -6.009387992135627188e-02 -1.828370591940829959e+00 4.049070957163405926e-01 -1.323449640210797307e-01 8.992279033412695077e-02 6.773231887521541372e-01 -2.361751598761629545e+00 1.102033949442577931e+00 -1.030374733290122108e-01 8.169268912125295101e-02 -1.008609830826135756e+00 -2.711397974275439049e-01 3.835006050327584570e-01 5.022907131980832579e-03 1.097264553082102773e-01 -4.392318371134384947e-01 1.618483727738848355e-01 -5.288913464840546697e-01 -3.582775688195324881e-01 -8.477698447113225788e-02 5.102899293472533682e-01 -6.455314981875844849e-01 6.542084571295424533e-01 6.257118923739137806e-01 -1.019018684856188406e+00 7.765759982306974507e-02 -7.951445052470598740e-02 -6.184973769089574525e-01 2.665488356263231440e-01 2.461301627765386524e-01 -5.361341440837628092e-01 6.198137817265119143e-01 6.236987186001928807e-01 2.464415233691281681e+00 -7.592004830802437931e-01 4.549649315657405269e-01 -2.060420365375855711e-01 1.341005132582401282e-01 2.393373082297054200e-01 -3.941346876995647369e-02 1.500943175708936428e-01 4.860372274663418146e-01 -8.325108616815930507e-01 -2.405657813192122185e-01 1.140781502494279565e+00 3.536521542359772341e-01 -6.631605241095439585e-01 1.429340009605353012e+00 -6.862521158037219182e-01 -5.010668680942631514e-01 1.189210801602587741e+00 1.377283398159924455e-01 7.887182900107408967e-01 3.976175040391333737e-01 8.848127563684174968e-01 1.113647622413072025e+00 -2.533091970178966146e-01 -3.390847979560954739e-01 -3.796238956891873073e-01 -1.201379832855487440e+00 -5.592987551076646913e-01 -1.413098865168776141e+00 -7.026310713696364181e-03 1.044484947428282740e-01 2.848514905760153870e-01 2.297213824139763549e-01 -7.190084842736556014e-01 -1.162180794089015645e+00 3.690355786586162895e-02 -3.057787276307066260e-01 4.716637323646702407e-02 -3.858814465582571795e-01 7.255128610460168659e-01 4.540372775458701438e-01 -4.588529537632125566e-01 -1.651398990384025933e-01 -4.661847115322321211e-01 -2.040592017811443115e-01 2.861340596759935462e+00 -1.045359636723071972e+00 3.975064323826522084e-01 1.812026089157249831e-01 8.031930865768883709e-01 2.130760605607597835e-01 -2.262894739169616365e-01 2.925483449936535085e-01 -2.175375416068789480e+00 -1.143271873014363615e+00 7.280715200660118569e+00 4.104334248469095892e-01 3.254414961516610694e-01 4.718390816001334920e-01 1.362780833679656745e+00 4.870749247014295458e-01 2.109908958985789451e-01 -2.157098986371321914e-01 -3.849851599969301708e-01 3.318162893247943446e-01 7.983151896630911182e-01 1.562979781177449290e+00 -7.098380792133673900e+00 -6.062578974294932088e-01 -1.802759833371183618e-01 -1.498752595817225142e-01 -3.516785754509094142e-01 4.618374903105115226e-01 -8.855182670753256602e-01 -1.313334920382167037e-01 -3.334515109341001926e-02 1.648644310459166817e+00 4.978272781135630043e-02 -5.437266117131339671e-02 5.502335595886544972e-01 2.255330553674997074e-01 1.069871505802439504e+00 -1.131034964638058637e+00 -2.232920818538661756e-01 -6.713967959700001265e-01 -3.123838916469119306e-02 -1.555219163401460603e-01 6.904471277184126565e-01 -5.300488571263651805e-01 6.682610785569350620e-01 8.455741226132924837e-02 -4.087951179138126639e-02 -8.438067463015993530e-01 8.107716702491992583e-03 -1.498474916676022228e-01 2.495759552306135165e-01 2.173044968165212601e-02 -4.295259226871344649e-01 -4.721167607413364053e-01 -5.309610845272797475e-01 2.203101164097264475e-01 -4.995108364622634078e-01 6.791116481097533297e-01 1.504860508482424475e+00 -6.519834244554963965e-01 -1.668995620406177882e-01 1.631848836181447826e+00 -8.472875057586406466e-01 1.354768247794058134e+00 7.441266194779826426e-01 9.917192257315230464e-01 5.827832113645815548e-01 9.174035457948931382e-01 -8.577488102931428715e-01 8.267978704616598673e-01 -7.180006118352154632e-01 9.291889684564275109e-01 2.394380954735494393e-01 2.897941792894264887e-02 -2.225197224648166883e-01 -6.026336704161637803e-01 -1.499981583127363511e-03
-3.644050218687424625e-01 4.742430630540657166e-01 1.915703252952292157e-01 -2.193951636394629645e+00 -2.819235182982206656e+00 -1.616810453802784986e+00 2.700738180577040293e-01 -7.895261306233885001e-01 4.069094708567924656e-01 -6.494010084423097462e-01 1.018321401679389976e-01 -2.621998146323911261e+00 2.162723017421944061e+00 4.109569014501401885e-01 3.171512311248597671e-01 3.005820139251579870e-01 -6.506932448901667776e-01 -1.262416793415669924e-01 -1.332875304392739269e+00 -2.012115507660456437e+00 3.270036984312431061e-01 6.978246511236675387e-01 -1.149925887990595585e+00 -3.856037674170543356e-02 6.409683043004840153e-01 2.314184647652945959e+00 -8.185276600395009483e-01 5.398817840487378783e-01 4.059591911291203781e-01 4.327115195014896165e-01 6.901000287919091258e-01 -5.690782030843242190e-01 7.335141340777144858e-01 4.685017896993804998e-01 1.596782588633212097e+00 -1.612930144914790920e-01 1.559594666757933457e+00 2.754797167162921223e+00 -1.624420404933639261e+00 -1.040549616932679777e+00 1.758675698602068238e-01 -1.420200252094723781e-01 -8.319225932787482902e-01 -1.980057965029217298e-02 5.431110896168009905e-01 -2.070972172741565032e-01 -2.031435805240594750e+00 -7.775679298295500308e-01 -1.953153941570449970e+00 8.962140562179548020e-01 -9.729208620927205786e-02 -1.505170069302802505e+00 -4.816540108003913856e-01 -4.782251876271676779e-05 -3.737036735546157562e-01 8.558662485599137781e-01 -7.723593890494687697e-01 4.895663236627775250e-01 -3.418513049554870453e-01 3.163978978991889845e-01 7.826808255721058316e-01 -1.240927513210358796e-01 5.758396901726142020e-02 -1.328248347147288344e+00 -1.802136597965372511e+00 -5.003808977713656292e-01 3.035356972345456539e-01 1.985560125790088726e-01 -8.825491571469823437e-01 -3.286250360834887529e-01 4.992886931493010771e-01 -6.250727161285152267e-01 1.420699046107625207e-01 -2.382547195334565604e+00 -3.091108773251410313e-01 4.256646399625189647e-01 -6.616631136295758608e-02 -1.091300107973191436e+00 -1.544410245719823049e-01 3.244320810513253578e-02 1.001254418908050642e-01 1.078125261164378929e-01 2.492648517483398996e-01 9.922977239423623752e-01 -5.857980869291601334e-01 1.295506891075678679e-01 7.025832488508737539e-01 -6.256126477919652373e-01 -4.424642280052927257e-01 -1.088970174290246673e+00 1.369436391317784052e+00 -3.800244735614040081e-01 -6.244443385163856997e-01 -2.798774344040609874e-01 -1.462643508827582650e+00 -1.530207471867928160e-01 -3.811385325603225294e+00 -3.712904361293100086e-01 2.144454301033954166e-02 8.405810402779594070e-02 -2.962483681281185444e+00 -6.244232554704794852e-02 -5.834038756672332154e-02 -2.626587051242604165e+00 1.963360192671551152e+00 7.559968885437735875e-02 -5.776086091462028643e-02 -2.353104464616319336e-01 1.786990743474651699e+00 6.849701637685020605e-01 1.460246212241864461e+00 2.160500555851057047e+00 -4.881952571920567863e+00 3.500793492858336187e-01 1.027102747409614825e+00 8.023384518867417506e-03 2.452153642724647087e-01 1.064619770489282136e+00 4.524714757218650796e-01 -9.520882416342911769e-01 -2.218492816050013250e+00 4.213494546861631385e+00 -8.241321507061123430e-01 4.774497429143270688e-01 4.749701710275118505e-02 -2.383155518342052193e-01 -3.313622325068645291e-01 6.937545948225181114e-01 -1.202732747337903696e+00 -2.214645417282458117e-01 9.055846987922878677e-01 4.798187573652931137e-01 -1.010225512051430963e+00 4.665400379888453575e-01 2.917708433982854621e-01 3.887014325033619211e-01 -5.246130308270029186e-02 7.680414784037640219e-01 -2.685728080333129597e-01 1.175229142622391310e+00 -5.467522859109815725e-01 -2.650149154814931407e-01 2.808001004838022840e+00 2.028749002439140803e+00 1.382525363281076336e+00 -4.452549033743815055e-01 2.211994095704602259e+00 1.064571433749887497e+00 -4.177523271001326588e-01 2.515191949984017517e-01 3.578615643283599712e-01 5.671755867464527423e-01 1.226339073884570863e-01 2.025340233870559503e-01 -1.027499211516776922e+00 -9.775128523352050181e-02 -1.009996683870254319e+00 8.483246887730965247e-01 -1.105934312935214769e-01 1.583925530174887131e+00 -1.183971407584594848e+00 1.480749731495905296e-02 5.408150944955586459e-01 -9.873406370512594066e-01 1.022052586584145661e+00 6.559989733696690584e-01 -1.487840834009215851e-01 2.175065855248411728e-01 -8.316253737535348467e-01 1.305849410644221997e+00 4.602274655121667557e-01 -4.252429790443960633e-01 2.083313467906136918e+00 -5.751573193941398321e-01 -1.702811283377737350e+00 -6.647726057904160823e-01 1.856168845078396856e+00 6.580944224444870150e-01 7.112699779848370429e-01 5.991688517987101559e-01 4.593167807731477481e-01 2.061478117215585826e+00 3.722355736506635093e-01 1.632261241128197593e+00 -2.937433937420895480e-02 -6.815783644807720254e-01 -2.348234795232631844e-01 2.173658433379018540e+00 1.137818563213518486e+00 -4.108849105616801944e-01 1.080878398427342013e+00 -1.395518690206843271e+00
5.582805982565873792e-01 1.198056939132426529e-01 -5.594051987784590119e-02 -2.678318161028067634e-02 -6.912277146375719328e-01 -3.317191016253733804e-01 2.203985623584058806e-01 3.745207701386367716e-01 2.634840806604544228e-01 -6.822350242276536969e-01 -4.776045233245160837e-01 -3.036935629685257390e-02 -1.178792177380529660e+00 2.610427153665860978e+00 2.032546007584774106e+00 -1.122903593786501036e-01 7.826530576579855403e-01 -2.471627178053078244e-01 -4.767570877232154558e-01 1.062951638759537465e+00 -7.690632347992641948e-01 1.905712460295939659e+00 -4.080006470375933114e-01 2.239785663973954954e-01 -6.398246776152336501e-01 -2.228333970502495986e-01 -1.991719460518473817e+00 -4.779562502367064036e-01 1.520118463070890547e-01 2.227043276716534348e-01 -4.404340849507205058e-01 8.243249834430587120e-01 -2.520907512307110299e+00 -4.203239444800504349e-02 7.447282576172555846e-01 4.463409373488639309e-01 9.921784247557714764e-02 -1.258511801937346464e+00 2.295064381898600514e-01 4.135994812772542106e-01 -1.706024648106212904e+00 -1.036398313771697000e+00 7.743669063962390631e-01 -1.154425318519345690e-02 -6.614157735056525045e-01 -7.744610087718689639e-01 7.904959507350710346e-02 -1.040359355298892563e+00 2.993607399244972989e-01 -3.828115493860698715e-01 -5.514363216465685280e-01 2.721255583788140947e-02 -1.236700619616492858e-01 -1.132056206812926957e+00 1.082007626934900352e-01 1.041421220903677725e+00 2.673906148006733319e-01 -8.189410934275141996e-01 1.153628276539967024e+00 6.821841163850997924e-01 -7.120397662707270703e-01 1.070223746935261788e+00 3.918361214751632147e-04 -5.412758361817027186e-01 2.546533697495712012e-01 -1.375502652111803004e+00 3.182598908071438415e-01 6.525223276776827008e-01 1.360203559872788404e+00 1.209601192317620068e-02 -1.427548464923962535e-01 1.118944094921200949e-01 -7.262795640081158854e-01 -5.123540109635280060e-02 9.731368347581005607e-02 1.285019875509583631e+00 -3.632396950728277840e+00 5.483606137812412129e+00 5.354204058467451066e-01 -5.026743217894487081e-01 7.550980308792872853e-01 7.353735558825099661e-01 1.960257385378925132e+00 1.897021103176289358e+00 4.754442824500841325e-01 1.770568079155029562e+00 -1.622747130997576281e+00 -9.819706309927747068e-01 -1.815018853234658669e-01 -4.094610336320677058e-01 7.622755224587496325e-02 -9.173079007573677057e-02 2.325814775683659741e-01 -4.908282210933550549e-01 -1.279566051488106315e-01 1.149222948386846799e+00 4.260621325109446023e-01 4.257073202749631080e-01 4.835946794650203273e-01 -2.284599992040307059e-01 2.501076593639537937e-01 -1.522108496916177778e+00 1.603910715032016154e-01 -3.808158591138322002e-01 -6.261932028853319787e-01 3.701370392520543784e-01 -1.771530185957234105e+00 -4.641175445921662535e-01 -6.687403321858259586e-01 -2.937469932865125477e-01 2.459167612143179082e-01 5.161767271407542435e-01 4.109543303469809228e-01 8.114555836895694096e-02 -5.145569321504042115e-01 8.748713288927228993e-01 -2.647691180194654548e-01 -1.794935452236845252e+00 4.626489304675820979e-01 1.297481498302010205e+00 6.572408161956042050e-02 3.531574739881306879e-01 -2.185658800264669299e-01 3.282774229363533691e-01 -7.718713936698362588e-01 -2.530448876131220493e-01 -1.623722607536209450e+00 3.772125608802194829e+00 -6.453029271167240566e+00 7.873936576630767847e-01 3.680734718564115937e-01 2.261100109164434713e+00 1.151946775073794116e-01 -3.087540082066321245e-01 7.430020189561109545e-01 1.095491006122827349e+00 -2.443181006919371345e+00 -3.407256759923516509e-01 1.850042420470450477e-01 -1.147135212621506639e+00 -1.316622332881629553e+00 6.435455781073521342e-01 2.985307878246797400e-02 -8.063802260531391375e-02 4.735385807884213705e-01 -2.918690595389701881e-01 -1.395497092940305439e+00 9.001082490630090138e-01 8.830644062201031819e-01 1.385362832727664140e+00 -1.773016797803933065e+00 -1.044140419604938419e+00 1.151652126651740105e+00 7.563198191005798821e-01 1.345869659759769965e-02 -2.220363550708709943e-01 2.050501049387330743e-01 6.484327309925227434e-01 2.355048218604739452e-01 -5.033700623043514399e-01 -1.402375822332658561e+00 1.377315279839099516e+00 7.405805540006955845e-02 -1.106505097836576051e-01 1.354756934940157365e+00 1.007625612536761084e-01 -3.148526649004582123e-01 -9.848127284250495217e-01 2.813470769699087937e-01 7.191822908472231823e-01 -3.187386302154028295e-01 1.157193368180632564e+00 -6.438577100308894297e-01 2.691086259317081009e+00 7.911130154932996539e-02 -1.706280215760246133e+00 -1.336017192453386737e-01 7.699811186271292573e-01 2.292632118309916034e-01 -8.434678749052054725e-01 -4.969777856297349361e-01 -7.316074039747880176e-02 -2.304479761667905385e-02 -1.021977510371894632e-01 -1.604586400942276558e+00 1.089706538235065914e+00 -3.234612324983791032e-01 -2.452040514185639120e-01 -4.250074659950054956e-01 -1.822547043285047408e-01 4.709484514657568677e-01 -1.897890650264760226e-01
1.746601798166062258e-01 -3.174047418963653611e-01 6.540300225702879722e-01 -1.613603773942523800e-01 -4.656164977340299105e-01 -5.221745965907361731e-01 -6.515175405630339034e-01 -1.159502218817671348e+00 1.350801549839911964e+00 1.053617505850066027e-01 -8.670222651680551396e-01 3.681074104181140672e-01 -8.789223590304937606e-01 -9.090495174097415476e-02 -1.302341911714324452e+00 1.352600807830780238e-01 -1.863756684722081280e-01 2.064364437622200343e-01 1.101055901800785719e+00 -2.638013547903102496e-01 3.241286908785296905e-01 -7.018833945709161970e-01 1.528695663210268008e-01 -5.245780638240367111e-01 7.365516353500946023e-01 7.430369859590774118e-01 -2.110109505032214117e-01 1.298360815582486061e-01 -7.370895101310173114e-01 3.915661556434381629e-01 2.752155101556438832e-01 -1.318455529434200635e+00 1.065424011557506878e+00 2.423717241782945564e-01 -1.253371652501302114e+00 1.351479292632699947e+00 -2.558093377299861318e-02 -2.494617982503412323e-01 4.437070992724914675e-01 2.703797793336590871e-01 -7.219760515401031364e-01 -2.233515257589088865e+00 7.266323193615698006e-01 -5.197829564319685902e-01 -2.407257039357197648e-01 -7.053307296868867315e-02 -2.683408945283453639e-01 -2.062535354834684309e+00 -9.921629981368158824e-02 -2.973326537524526025e-01 8.489525521645940875e-01 7.017635811636934173e-01 3.494638271895005865e-01 2.311966814067745735e-01 -1.711208506295964993e+00 5.598690257883942589e-01 -1.274030466386164129e+00 -1.499693619573523595e-01 3.966903642398948715e-02 3.751203513953821900e-01 -1.296360497324561822e-01 -2.117036056943329969e-01 3.675083433820005574e-01 2.309107747354619822e-01 -3.595821465625541058e-01 -8.650733689733164367e-02 -1.264648510957930017e-01 4.469965686544818267e-02 3.206618153785487091e-01 6.385771783623481745e-01 3.922166447427375413e-01 -1.299569234067350365e-01 -4.541658327038344822e-01 1.330637416202896661e+00 9.880425482137444870e-01 -1.099372857672717141e-01 2.528371424778517174e-01 -1.050989838421275968e-01 6.420538240543345321e-01 6.641288015593309613e-01 -7.901092568199145072e-01 1.096597094701952102e+00 -2.016012271608670359e-01 -4.237861919943447520e-01 1.354508052154338671e+00 2.265512122185769361e-01 -1.112644377960318787e+00 -4.350825908349830184e-01 -2.691867874677504324e-01 8.845988405855649273e-01 -2.878915629515549704e-02 6.402545660634663127e-01 -2.824099710159575505e-01 -1.505048713233684277e+00 -5.215534180674527565e-02 -6.873561475003193699e-01 9.750368799928128549e-01 -4.977316330760375163e-01 1.127215848005255427e+00 -1.320449677044542414e+00 4.439225577172396520e-01 4.658401837088878006e-01 1.304074321023050986e+00 -6.562586547887568900e-01 5.677150041892708998e-01 -4.127232493205696406e-01 2.061024574618287808e+00 6.625815116780726655e-01 -1.966688228600930732e-01 1.175647203996091072e-01 2.692922026972811023e-01 4.338284067138834521e-01 -2.066734994735061615e-01 -4.326107322576456804e-01 5.517460881551992102e+00 3.082022494686494918e-01 -7.681340381174983634e+00 7.194789961518047727e-01 -7.466483574566102482e-03 -3.649752925494720857e-01 -2.049060203176867212e+00 1.138992014695416222e+00 1.336134948978081827e+00 -6.709077721491040203e-01 -5.639113141754233949e-01 4.133423709613256447e-01 1.883014247385132178e-01 -9.129267409739445782e-02 -5.834552977304188065e-02 1.525960009448787680e-01 4.338109232124002790e-01 4.057725290397562468e-01 2.043188832002322264e-01 3.371729256468504743e-01 -2.922187295686330399e-01 -1.399533724900383913e-01 9.303382515686284271e-02 -5.770018288006114465e-02 5.327480012229834222e-02 9.434534487841453876e-01 4.167208005126272208e-01 8.551216570849846654e-01 -2.616436850190376195e-01 -7.647437814916641097e-01 1.094652312272268307e-01 -1.617887231805893999e-01 -8.252228126662812802e-01 1.664017964689800885e-02 8.230821121758599701e-02 1.561718912188135300e-01 -1.474903557132321463e+00 -1.340904859559189033e+00 5.527702099656059964e-01 8.013907432622290328e-01 3.589830795264404850e-01 2.789358964271305141e-01 -5.476125770280785288e-01 -2.126595418489554690e-01 1.688571999860980777e-01 -6.130044721194592983e-01 2.374866281756514985e-01 9.586615239713211500e-02 1.205289966540129543e+00 1.399852541692135632e-01 -2.776462310824326929e-01 -5.692370972595681700e-01 -2.668028606184605911e-01 -8.991255734355300122e-01 -9.474679692570543432e-01 4.902245260715547004e-01 2.818397003352279273e-01 -6.132492411402232918e-02 -1.166082700243547682e-01 1.220980894900619146e-01 -1.048958666925440229e-02 8.717849766603160688e-01 5.094728327632324083e-01 -1.544543943084106141e+00 3.122671635634803322e-01 -2.766887522659146614e-01 2.850206691638963452e-01 -3.057247344643615472e-02 2.526875042739812338e-01 1.802672415863768030e-01 1.363846813049496565e-01 -2.355798980727250858e-01 7.143141641254313612e-02 -2.073975221231610377e-01 -1.708935136882524519e-01 -3.837231083001630960e+00 5.304607478524826503e-01 6.070799305315801142e+00
1.327625111741477237e-01 -3.500428396209717685e-01 6.693846506375430438e-01 4.044910912251681312e-02 -3.454585626879650984e-01 -6.212489715100252274e-01 -5.401738613676327905e-01 -1.522376920086006891e+00 1.787407776407087923e+00 1.851888472538817665e-01 -9.259756037279520680e-01 4.495419607821747876e-01 -7.716641627551978910e-01 -2.719399247307136558e-01 -1.389806213207542163e+00 2.685882346522686648e-01 -1.638893144617259434e-01 1.711207992075333140e-01 1.155890847320138359e+00 -3.071336989956502395e-01 3.459275319042188213e-01 -6.351581253811298122e-01 1.548097207650239171e-01 -2.320034935781584984e-01 6.096239856856302541e-01 6.456441125059613206e-01 -3.586015278176025167e-01 9.071057634213212928e-02 -6.199701047985963775e-01 2.278938422883559911e-01 2.466479829528188394e-01 -1.362389511778813400e+00 1.155526264892152044e+00 2.698413903321046359e-01 -1.154932340062357010e+00 1.456351505176178396e+00 1.262905303015934011e-01 -1.775989507276699297e-01 3.103897440365698257e-01 4.516682630949040989e-01 -1.303165178945927538e+00 -2.823117034532096170e+00 5.132199585075755133e-01 -7.690030709853369340e-01 -1.645032938961634161e-01 -5.241090946077830298e-02 1.704847082859260038e-02 -2.530595943231931155e+00 -3.613402669028737413e-01 -1.930353398753903160e-01 7.565311637802731859e-01 5.877510968889536613e-01 3.336870239834907603e-01 2.375791878893857567e-01 -1.896780962141212168e+00 6.299891795897015756e-01 -1.417871346853042613e+00 -9.041027149312754960e-03 2.068709601961392919e-01 1.970236350960745120e-01 -9.233499931816895046e-02 -3.607720531046716000e-02 3.270700328927527156e-01 2.597554668588580307e-01 -2.792665402934146335e-01 1.140901315901502074e-02 -5.404921639387523513e-02 9.844239776273654152e-02 4.198421197480002864e-01 6.544100316172304366e-01 4.685886929861643457e-01 -1.386045717726770432e-01 -4.005778722167350758e-01 1.420457876631284089e+00 1.019047995432204257e+00 -1.160575397276357584e-01 1.253294519406523699e-01 -7.293654020198908627e-02 6.183153428052801104e-01 5.980555641307394588e-01 -7.476202344508203756e-01 9.299412732408345317e-01 -2.113565067678294107e-01 -3.415237464129940448e-01 1.958017440306555113e+00 6.603713914023505716e-01 -1.334064182493593043e+00 -4.691419943860427044e-01 -2.298895325605936624e-01 6.424544019265512329e-01 2.742698584136585641e-02 4.419911450239841222e-01 -1.581063892358602341e-01 -1.474246897385439681e+00 7.243826040971948488e-02 -6.966959368367410255e-01 1.188182360338873256e+00 -5.936723474647890297e-01 1.231010768324993343e+00 -1.312776990996601612e+00 5.613427821192968903e-01 7.588101896206641550e-01 1.242120505076267367e+00 -8.181754189066788863e-01 2.858830171635208250e-01 -7.696371050244168455e-01 2.600926927492299701e+00 1.258208411764550894e+00 -1.519177439314591815e-01 1.394664055516696977e-01 1.899541298493021557e-01 3.767843693600720356e-01 -4.228071159112887223e-01 -5.780112439009470471e-01 4.950902873784400526e+00 2.908462747022062533e-01 -7.158828455849748806e+00 6.946745355329105864e-01 -2.278820152138232719e-02 -3.675649076515047908e-01 -1.988635679389226585e+00 1.165787023380229881e+00 1.369818971467885671e+00 -6.121529227531038453e-01 -5.679325195165465523e-01 3.641360844782812189e-01 1.609474582268710652e-01 -1.199692160741732266e-01 -1.060698323950739347e-01 6.245209573905325003e-03 2.653496731128322517e-01 5.565502458303880351e-01 1.655348204836688819e-01 4.605843346306756625e-01 -3.281936049733606420e-01 -1.047909656836451542e-01 1.151185728538645613e-02 -7.248248338405920144e-02 -3.013847123314870955e-03 1.002736916989694915e+00 4.116788672172676522e-01 7.677087776549523790e-01 -1.418822140801346554e-01 -7.897960964551135055e-01 1.912268259131486570e-01 -3.244886453208297578e-02 -6.815932768790959884e-01 1.949718947749644327e-02 9.880338064630027339e-02 2.398859816438970449e-01 -2.279611023470028641e+00 -1.407925805612292969e+00 7.943742027405377160e-01 6.948735389174391930e-01 3.136858982867742895e-01 2.068426780613871752e-01 -5.641617396231378700e-01 -3.008607215076246066e-01 1.127804116408099994e-01 -4.782077041256845851e-01 2.136072504734682354e-01 1.382291907114213125e-01 1.140744992829417548e+00 1.300839359028037601e-01 -2.925051504605775121e-01 -5.407631582117411462e-01 -2.014047948794976117e-01 -7.934213519097065292e-01 -6.882004977778287680e-01 4.607422003646557407e-01 2.048511015542043290e-01 -7.456970492876745238e-02 -8.738305463338438828e-02 1.099059183087284092e-01 -6.278993869418340867e-02 7.492935083868835777e-01 5.271681931467012694e-01 -1.369944955522690577e+00 2.052887033119148164e-01 -2.969675571038339901e-01 2.345643123248072059e-01 -5.426930282431009778e-02 3.073980084004248048e-01 1.823380080708656148e-01 3.778904579391968027e-02 -1.933829530225257831e-01 -1.267142481022437428e-02 -2.702136860695691922e-01 -1.460880246280944483e-01 -3.256977322925155072e+00 6.831796475283753445e-01 5.579473318650807201e+00
2.042828877560022016e-01 -2.587213691681932715e-01 6.312253659886862822e-01 -3.558108524485136259e-01 -5.332519374422034497e-01 -4.316162295556338346e-01 -7.535893075454183077e-01 -8.364374504264542320e-01 9.587052327250290551e-01 7.708270115665342981e-02 -7.773051630866709694e-01 2.416029643336681521e-01 -9.521895430987669107e-01 3.170787260157679338e-02 -1.219955024740064120e+00 2.657029426869180616e-02 -1.759261910122385530e-01 2.222770103265801489e-01 1.029634255580247792e+00 -1.667082719655669232e-01 2.922033029496773349e-01 -7.411050590451899733e-01 1.405586101737342775e-01 -8.397315477941313944e-01 8.192815074858035285e-01 8.014498786348924764e-01 -6.293494891236713074e-02 1.388231155412163464e-01 -8.694154479887182818e-01 5.731498020473693167e-01 2.888325867078536113e-01 -1.179459635760680136e+00 9.237387439793735000e-01 2.002868792258401254e-01 -1.314435866754973148e+00 1.262068666047902354e+00 -1.657389660745161863e-01 -2.908498742466292253e-01 5.425387620535438993e-01 6.859086164216413040e-02 -1.908427031011513397e-01 -1.744923382023680469e+00 9.423895262968329245e-01 -2.594891005715561083e-01 -3.169517135196991964e-01 -9.311764311985555598e-02 -4.514805725642763168e-01 -1.600195985187480074e+00 1.253618478404593672e-01 -3.627944828497658425e-01 9.465470001053981619e-01 8.074909426179505134e-01 3.526761634767123788e-01 2.191124965581310591e-01 -1.451341967780625852e+00 4.663204657790423480e-01 -1.081377192440243551e+00 -2.524607329753322804e-01 -1.318050323576296957e-02 5.333856348064862640e-01 -1.972339513345040818e-01 -3.908246494923001690e-01 4.145065664718502463e-01 1.728696635764795375e-01 -4.161844683936001821e-01 -2.123782631633296392e-01 -1.864296616385531236e-01 5.366920734693279155e-03 2.589676808508528660e-01 6.237727663711801762e-01 2.831010835451735486e-01 -1.271755040090196132e-01 -5.034122283961637301e-01 1.165131906295243880e+00 9.218268716701284449e-01 -1.049976823776517382e-01 3.611350928707627306e-01 -1.293897380497965877e-01 6.224640748631037335e-01 7.159293311300948259e-01 -8.191400968120429171e-01 1.244599048521818796e+00 -1.848402056654825931e-01 -5.005166520181760781e-01 8.215044832773220618e-01 -1.940103021933914929e-01 -9.258722453809488107e-01 -3.710122427674752421e-01 -3.227680630866355815e-01 1.158440867433518262e+00 -5.820051955485816553e-02 8.336740287508538350e-01 -4.085272089646150850e-01 -1.485300069867209638e+00 -1.948304841012036825e-01 -6.832413540041982758e-01 6.987718455275485629e-01 -3.991133718572059119e-01 9.673569948560258869e-01 -1.324460083752396766e+00 3.461414476870713908e-01 2.097541952789624409e-01 1.325287464749054900e+00 -5.147497648873505804e-01 7.898984263608529455e-01 -8.144072101164294419e-02 1.505526424200679392e+00 1.977492004076249754e-01 -2.408300907239868116e-01 1.053293546851996193e-01 3.510681955608949689e-01 4.671488752169642988e-01 1.556648696758023559e-02 -3.058815717570780301e-01 5.576668759324658886e+00 2.952207496174151791e-01 -7.542726039210301714e+00 7.111727902854159122e-01 1.043096551722268520e-02 -3.560674485438103387e-01 -2.062428396943257969e+00 1.028983766480948470e+00 1.302402589748883566e+00 -7.159817816345441788e-01 -5.320779717396735276e-01 4.661497445292658304e-01 2.009116572935465972e-01 -6.987127101548848418e-02 2.771649205710143742e-04 2.729472829485219409e-01 4.859138145146960630e-01 2.937346519913480170e-01 2.629811728824981154e-01 2.085329212783016972e-01 -2.170134479388901305e-01 -1.889323734538019550e-01 1.466068732456383139e-01 -3.534495513070254336e-02 9.499917641182094308e-02 9.017157027581944595e-01 4.048957828624397126e-01 9.426342953175970152e-01 -4.046571844892580261e-01 -7.321056837670576467e-01 2.854387305375962955e-02 -2.876725049623837793e-01 -9.459191367139005990e-01 1.315119265974711189e-02 8.818318193655413917e-02 8.090850265767077221e-02 -7.370087774918157031e-01 -1.313026902223684456e+00 3.430550954546646714e-01 9.151250341751339112e-01 3.893411229693922726e-01 3.468824396175775315e-01 -5.478414052092550612e-01 -9.043238298029740441e-02 2.439472961943049689e-01 -7.376052734247701137e-01 2.754757057953636235e-01 5.713711128817754170e-02 1.251036576612038820e+00 1.304042953564507890e-01 -2.791076461181707935e-01 -5.693255432082475753e-01 -3.392395783662844888e-01 -1.009149762489585767e+00 -1.221224121259487649e+00 4.991236283264749440e-01 3.645736862359916786e-01 -2.733134080384042042e-02 -1.455270099187382926e-01 1.355470158956543214e-01 1.986639989116988775e-02 9.564138655894734997e-01 4.647531212931417244e-01 -1.697144057794039540e+00 4.730351587898333210e-01 -2.487593728672243265e-01 3.404994189143344951e-01 -6.909068409632930854e-03 2.143302446818594331e-01 2.075456176651359064e-01 2.553244276741448715e-01 -2.700105689199855941e-01 1.782329847667498413e-01 -1.515871000651750067e-01 -2.312661011920753018e-01 -3.898290669269615094e+00 3.647289808668124911e-01 5.941121603712163690e+00