3.934060000000000112e+00 1.775879999999999903e+00 5.662279999999999980e+00 1.166570000000000107e+00 7.652610000000000134e+00 6.995289999999999786e+00 5.887979999999999769e+00 1.189380000000000059e+01 1.067370000000000019e+01 1.089029999999999987e+01 9.067989999999999995e+00 9.586040000000000560e+00 8.410249999999999559e+00 1.041929999999999978e+01 8.104430000000000689e+00 5.067560000000000286e+00 5.377449999999999619e+00 7.943130000000000024e+00 3.063379999999999992e+00 9.338400000000000034e+00 9.511639999999999873e+00 9.861789999999999168e+00 3.063530000000000086e+00 5.354529999999999568e+00 2.163969999999999949e+00 3.543449999999999989e+00 1.141460000000000008e+01 1.036159999999999970e+00 7.780190000000000161e+00 1.002529999999999966e+01 1.184779999999999944e+01 1.022269999999999968e+01 1.839960000000000040e+00 3.263380000000000170e+00 1.222489999999999988e+01 9.040060000000000429e+00 6.261790000000000411e+00 1.994009999999999949e-01 2.768149999999999888e+00 9.805639999999999912e-01 5.407969999999999722e+00 8.701980000000000715e+00 2.363030000000000186e+00 4.431309999999999860e+00 3.662399999999999878e+00 1.074789999999999957e+01 6.213219999999999743e+00 6.809709999999999930e+00 6.255389999999999562e-01 7.591779999999999973e+00 5.624219999999999775e-01 4.846879999999999633e+00 1.001539999999999964e+01 3.547950000000000159e+00 8.421089999999999520e+00 8.615550000000000708e+00 6.207569999999999588e+00 9.703459999999999752e+00 1.261110000000000042e+01 4.644569999999999865e+00 -4.370000000000000273e-02 1.230899999999999928e+01 3.829229999999999912e+00 6.094730000000000203e+00 2.602279999999999927e+00 6.169260000000000410e+00 1.136909999999999954e+01 8.471619999999999706e+00 3.537380000000000191e+00 1.613490000000000091e+00 1.071600000000000108e+00 6.543140000000000178e+00 9.709419999999999717e-01 2.526250000000000107e+00 4.445140000000000313e+00 1.002529999999999966e+01 4.272409999999999819e+00 8.651400000000000645e+00 3.540779999999999816e+00 1.262429999999999941e+00 1.143430000000000035e+01 8.314389999999999503e+00 5.926289999999999836e+00 7.089859999999999829e+00 9.703889999999999461e+00 4.632659999999999556e+00 3.165340000000000042e+00 5.196729999999999627e+00 5.384839999999999627e+00 2.523210000000000175e+00 6.671260000000000190e+00 1.224600000000000044e+01 5.443539999999999601e+00 9.228780000000000427e+00 6.875769999999999937e-01 1.815029999999999921e+00 8.607699999999999463e+00 7.909580000000000055e+00 9.137219999999999231e+00 8.645720000000000738e+00 5.436560000000000281e-01 7.555780000000000385e+00 2.157360000000000111e-01 1.679380000000000095e+00 9.010619999999999408e+00 5.704959999999999809e+00 1.159009999999999962e+01 8.001110000000000610e+00 7.146119999999999806e+00 6.925959999999999894e+00 9.390319999999999778e-01 8.629269999999999996e+00 1.446720000000000006e+00 1.134520000000000017e+01 1.475929999999999964e+00 8.761799999999999145e+00 4.567759999999999820e+00 6.593919999999999781e+00 2.949619999999999909e+00 9.523039999999999949e+00 7.669579999999999842e+00 1.046720000000000006e+01 3.820139999999999869e+00 4.479940000000000033e+00 7.889579999999999593e+00 7.479110000000000369e+00 2.445190000000000197e+00 1.213250000000000028e+01 3.493139999999999912e+00 -1.278440000000000132e-01 5.638790000000000191e+00 2.931999999999999940e+00 8.493220000000000880e+00 1.088439999999999941e+01 1.175919999999999987e+01 4.966020000000000323e+00 4.280219999999999914e+00 1.117290000000000028e+01 7.842060000000000031e+00 2.518639999999999990e+00 3.727899999999999991e+00 2.839020000000000099e+00 6.049879999999999924e+00 3.401259999999999839e-01 5.892470000000000319e+00 5.119439999999999991e+00 5.258560000000000123e+00 9.080109999999999459e+00 4.887179999999999858e+00 1.207639999999999958e+01 3.015870000000000051e+00 2.432259999999999867e+00 8.333650000000000446e+00 1.236270000000000024e+01 6.554740000000000011e-01 7.365549999999999597e-01 4.259590000000000209e+00 2.339500000000000135e+00 2.255389999999999784e+00 9.755300000000000082e+00 8.352470000000000283e+00 8.799949999999999717e-01 3.906320000000000014e+00 7.758899999999999686e+00 2.679609999999999825e+00 1.091760000000000019e+01 1.172739999999999938e+01 9.333970000000000766e+00 3.021830000000000016e+00 5.437140000000000306e+00 5.714260000000000339e+00 8.462160000000000792e+00 7.316040000000000099e+00 3.986120000000000108e+00 4.894680000000000142e+00 1.002580000000000027e+01 6.110269999999999868e-01 1.213829999999999920e+01 1.130160000000000053e+01 6.320680000000000298e+00 2.132779999999999898e+00 1.056869999999999976e+01 5.064950000000000285e-01 5.735570000000000057e+00 8.443669999999999121e+00 1.021020000000000039e+01 1.212659999999999982e+01 3.603369999999999962e+00 6.212220000000000297e+00 1.195700000000000074e+01 3.516070000000000029e+00 1.176539999999999964e+01
3.944319999999999826e+00 1.836850000000000094e+00 5.663859999999999673e+00 1.129280000000000062e+00 7.661380000000000301e+00 6.932319999999999816e+00 5.915700000000000180e+00 1.198780000000000001e+01 1.076239999999999952e+01 1.085379999999999967e+01 8.968479999999999563e+00 9.554790000000000560e+00 8.479409999999999670e+00 1.039949999999999974e+01 7.909869999999999735e+00 4.850179999999999936e+00 5.344219999999999970e+00 7.872630000000000017e+00 3.109999999999999876e+00 9.218899999999999650e+00 9.609790000000000276e+00 9.859939999999999927e+00 3.072090000000000209e+00 5.376559999999999562e+00 2.209189999999999987e+00 3.562910000000000021e+00 1.150600000000000023e+01 1.180190000000000072e+00 7.742210000000000036e+00 9.970420000000000726e+00 1.165740000000000087e+01 1.026219999999999999e+01 1.783339999999999925e+00 3.277930000000000010e+00 1.217379999999999995e+01 9.085100000000000620e+00 6.232529999999999681e+00 2.128359999999999974e-01 2.725919999999999899e+00 1.061450000000000005e+00 5.385349999999999859e+00 8.699009999999999465e+00 2.428450000000000220e+00 4.432800000000000296e+00 3.607499999999999929e+00 1.083559999999999945e+01 6.163369999999999571e+00 6.839590000000000281e+00 8.086170000000000302e-01 7.551969999999999850e+00 5.431660000000000377e-01 4.873459999999999681e+00 1.003650000000000020e+01 3.470769999999999911e+00 8.367749999999999133e+00 8.459939999999999571e+00 6.149729999999999919e+00 9.816739999999999355e+00 1.250820000000000043e+01 4.666459999999999830e+00 1.425450000000000050e-01 1.223559999999999981e+01 3.920129999999999892e+00 6.048799999999999955e+00 2.689919999999999867e+00 6.182089999999999641e+00 1.131000000000000050e+01 8.318770000000000664e+00 3.532259999999999955e+00 1.733300000000000063e+00 1.009800000000000031e+00 6.459259999999999557e+00 1.073949999999999960e+00 2.567860000000000031e+00 4.436609999999999943e+00 1.005289999999999928e+01 4.358889999999999709e+00 8.679489999999999483e+00 3.495410000000000128e+00 1.205980000000000052e+00 1.135909999999999975e+01 8.275829999999999131e+00 5.821430000000000327e+00 7.114819999999999922e+00 9.751810000000000755e+00 4.664520000000000444e+00 3.165509999999999824e+00 5.189630000000000187e+00 5.435959999999999681e+00 2.646049999999999791e+00 6.675670000000000215e+00 1.220209999999999972e+01 5.514300000000000423e+00 9.107720000000000482e+00 6.056580000000000297e-01 1.762680000000000025e+00 8.494730000000000558e+00 7.898769999999999847e+00 9.098029999999999617e+00 8.672330000000000538e+00 4.390180000000000193e-01 7.505910000000000082e+00 1.965179999999999982e-01 1.637070000000000025e+00 9.037520000000000664e+00 5.741660000000000430e+00 1.156279999999999930e+01 7.922250000000000014e+00 7.163619999999999877e+00 6.980780000000000207e+00 9.580469999999999819e-01 8.780549999999999855e+00 1.526980000000000004e+00 1.139289999999999914e+01 1.437079999999999913e+00 8.748580000000000467e+00 4.608369999999999855e+00 6.626490000000000435e+00 2.982429999999999914e+00 9.595700000000000784e+00 7.606770000000000032e+00 1.055489999999999995e+01 3.760429999999999939e+00 4.458210000000000228e+00 8.063269999999999271e+00 7.477360000000000007e+00 2.456980000000000164e+00 1.209800000000000075e+01 3.506549999999999834e+00 -4.064099999999999657e-02 5.573150000000000048e+00 3.077210000000000001e+00 8.551610000000000156e+00 1.087720000000000020e+01 1.170839999999999925e+01 4.947169999999999845e+00 4.270679999999999588e+00 1.118089999999999939e+01 7.764809999999999768e+00 2.496750000000000025e+00 3.711549999999999905e+00 2.786379999999999857e+00 6.007629999999999804e+00 4.624960000000000182e-01 5.898520000000000429e+00 5.160459999999999603e+00 5.215019999999999989e+00 9.038500000000000867e+00 4.831599999999999895e+00 1.204679999999999929e+01 2.978099999999999969e+00 2.492179999999999840e+00 8.364670000000000272e+00 1.228180000000000049e+01 7.780510000000000481e-01 7.234319999999999640e-01 4.286579999999999835e+00 2.248810000000000198e+00 2.233680000000000110e+00 9.677049999999999486e+00 8.389730000000000132e+00 8.687890000000000335e-01 3.933460000000000178e+00 7.840790000000000148e+00 2.704349999999999810e+00 1.090329999999999977e+01 1.177120000000000033e+01 9.393950000000000244e+00 3.004379999999999828e+00 5.498630000000000351e+00 5.679909999999999570e+00 8.471140000000000114e+00 7.318489999999999718e+00 4.053969999999999629e+00 4.810310000000000308e+00 1.004909999999999926e+01 6.156239999999999490e-01 1.210689999999999955e+01 1.134970000000000034e+01 6.442919999999999980e+00 2.098360000000000003e+00 1.055610000000000070e+01 5.078259999999999996e-01 5.765060000000000073e+00 8.431290000000000617e+00 1.017340000000000089e+01 1.212160000000000082e+01 3.606590000000000185e+00 6.134689999999999976e+00 1.196990000000000087e+01 3.534330000000000194e+00 1.163640000000000008e+01
1.206590000000000051e+00 4.507690000000000197e+00 1.433489999999999931e+00 1.079640000000000022e+01 9.910239999999999938e+00 9.565110000000000667e+00 3.565230000000000121e+00 1.848770000000000024e+00 1.324000000000000066e+00 1.165249999999999986e+01 1.035299999999999976e+01 6.507439999999999891e+00 8.755900000000000460e+00 8.837659999999999627e+00 8.793279999999999319e+00 5.565150000000000041e+00 5.478270000000000195e+00 9.419999999999999929e+00 1.050970000000000049e+01 5.708000000000000185e+00 1.049579999999999913e+01 8.442660000000000053e+00 3.915189999999999948e+00 5.566349999999999909e+00 4.026000000000000134e-01 6.563839999999999897e+00 2.512999999999999956e-02 3.468809999999999949e+00 5.869500000000000384e+00 7.968659999999999854e+00 1.158270000000000088e+01 8.430070000000000618e+00 1.192370000000000019e+01 3.230080000000000062e+00 6.712200000000000111e-02 1.051720000000000077e+01 8.928119999999999834e+00 1.093050000000000033e+01 3.866620000000000168e+00 1.164910000000000068e+01 5.380150000000000432e+00 7.263049999999999784e+00 4.852240000000000109e+00 4.247370000000000090e+00 4.219179999999999708e+00 7.416540000000000354e+00 5.810850000000000293e+00 7.127909999999999968e+00 8.049049999999999372e+00 1.130269999999999975e+01 8.896349999999999980e+00 6.319209999999999994e+00 9.265380000000000393e+00 3.938790000000000013e+00 1.435680000000000067e+00 1.218859999999999921e+01 8.580550000000000566e+00 5.382759999999999767e-01 1.133479999999999954e+01 1.955170000000000075e+00 1.817860000000000031e+00 2.344129999999999825e+00 8.129569999999999297e+00 5.392400000000000304e+00 2.988080000000000069e+00 6.397389999999999688e+00 1.070800000000000018e+01 5.968619999999999592e+00 1.569050000000000056e+00 2.193560000000000176e+00 1.977400000000000047e+00 3.770630000000000148e+00 1.125939999999999941e+00 9.039339999999999264e+00 5.735120000000000218e+00 1.008660000000000068e+01 3.638290000000000024e+00 9.313470000000000582e+00 5.519709999999999894e+00 1.070839999999999925e+01 1.187589999999999968e+01 7.852780000000000094e+00 8.398099999999999454e+00 6.283009999999999984e+00 1.078279999999999994e+01 3.750030000000000197e+00 3.697659999999999836e-01 5.009590000000000209e+00 1.366360000000000019e+00 4.416680000000000383e+00 2.709470000000000045e+00 3.495670000000000055e+00 6.201850000000000307e+00 2.972780000000000200e+00 1.220889999999999986e+01 2.434120000000000061e+00 6.244290000000000340e+00 8.758060000000000400e+00 8.900629999999999598e+00 1.124949999999999939e+01 1.997319999999999929e-01 4.527370000000000339e+00 1.296859999999999902e+00 1.053209999999999980e+00 1.184950000000000081e+01 7.004220000000000113e+00 1.143709999999999916e+01 6.204069999999999752e+00 9.154469999999999885e+00 9.806720000000000326e+00 1.153810000000000002e+01 1.018790000000000084e+01 3.139319999999999888e-01 1.333110000000000017e+00 8.534490000000000132e-01 7.552749999999999631e+00 2.757810000000000095e+00 7.347959999999999603e+00 3.257050000000000001e+00 1.005289999999999928e+01 1.037129999999999974e+01 8.900130000000000763e+00 3.298579999999999846e+00 2.783459999999999823e+00 1.232390000000000008e+01 6.220850000000000435e+00 3.900570000000000093e+00 5.872139999999999915e+00 1.942090000000000094e+00 9.329420000000000712e+00 6.088460000000000427e+00 4.825490000000000279e+00 8.044549999999999201e+00 1.536939999999999973e+00 1.185779999999999923e+01 4.718810000000000393e+00 4.080259999999999998e+00 1.202299999999999969e+01 7.786819999999999631e+00 1.002389999999999892e+00 3.434880000000000155e+00 7.058840000000000003e+00 6.922729999999999606e+00 2.574790000000000134e+00 4.080610000000000070e+00 3.008039999999999825e+00 9.079290000000000305e+00 8.055999999999999162e+00 7.032329999999999970e+00 1.051290000000000013e+01 3.173639999999999795e+00 6.991999999999999993e+00 1.043350000000000044e+01 1.165540000000000020e+01 2.874559999999999782e+00 2.999859999999999971e+00 4.153520000000000323e+00 9.915760000000000574e+00 2.816460000000000186e+00 5.522569999999999979e+00 9.430370000000000141e-01 1.046369999999999933e+01 5.346940000000000026e+00 6.509199999999999875e+00 5.638069999999999915e+00 1.023499999999999943e+01 9.487809999999999855e-01 9.150790000000000646e+00 8.907640000000000002e-01 6.204930000000000057e+00 5.594969999999999999e+00 8.491210000000000591e+00 3.838950000000000085e+00 1.351290000000000102e+00 3.701560000000000183e+00 1.026399999999999935e+01 8.823750000000000426e+00 6.935999999999999943e-01 8.428470000000000795e+00 8.447950000000000514e+00 1.757710000000000106e+00 9.687400000000000233e+00 1.124709999999999965e+01 5.990920000000000023e+00 8.243449999999999278e+00 4.351650000000000240e-01 1.142600000000000016e+01 2.854150000000000187e+00 6.434219999999999828e+00 1.014340000000000019e+00 4.161769999999999747e+00 1.002309999999999945e+01
1.136560000000000059e+01 4.720860000000000056e+00 1.055540000000000056e+01 2.680670000000000108e+00 1.558610000000000051e+00 6.386040000000000383e+00 5.255779999999999674e+00 5.709340000000000082e+00 1.081900000000000084e+01 8.251749999999999474e+00 9.742250000000000298e+00 8.313240000000000407e+00 4.468169999999999753e+00 2.145459999999999923e+00 1.174530000000000030e+01 3.259069999999999911e+00 1.187030000000000030e+01 8.169909999999999783e+00 1.170199999999999996e+01 2.638419999999999987e+00 1.449840000000000018e+00 7.035580000000000389e+00 1.133099999999999952e+01 5.385049999999999670e+00 9.281159999999999854e+00 7.148019999999999818e+00 1.027789999999999981e+00 1.139550000000000018e+01 9.895749999999999602e+00 5.170890000000000208e-01 8.324150000000000160e-01 1.018040000000000056e+01 8.285119999999999152e+00 2.227830000000000088e-01 8.386229999999999407e+00 6.719000000000000306e+00 7.847470000000000390e+00 1.074649999999999928e+01 3.071759999999999824e+00 1.041350000000000087e+01 1.110389999999999944e+01 7.282379999999999853e+00 6.674649999999999750e-01 2.237260000000000026e+00 3.986990000000000034e+00 1.044410000000000061e+01 8.337320000000000286e-01 2.829779999999999962e+00 9.026999999999999469e-01 4.240700000000000358e+00 6.055329999999999657e+00 8.541579999999999728e+00 7.987729999999999997e+00 1.056240000000000023e+01 1.107220000000000049e+01 8.870540000000000092e+00 9.965939999999999799e+00 8.998260000000000147e+00 9.059430000000000760e+00 5.662300000000000111e+00 1.287729999999999986e-01 3.088210000000000122e+00 9.452719999999999345e+00 1.947959999999999914e+00 2.291150000000000020e+00 8.442809999999999482e-01 1.142719999999999914e+01 4.677480000000000082e+00 7.791800000000000281e+00 8.637729999999999464e+00 1.143459999999999965e+01 4.753410000000000135e-01 4.892999999999999794e+00 8.883110000000000284e+00 5.866999999999999819e-03 6.565140000000000420e+00 1.036860000000000070e+01 1.056719999999999970e+01 5.418110000000000426e+00 4.540339999999999598e+00 1.021069999999999922e+00 1.057179999999999964e+01 6.793750000000000178e+00 8.798120000000000829e+00 1.124690000000000012e+01 1.266350000000000087e+00 1.097990000000000066e+01 9.522660000000000124e+00 1.299330000000000096e+00 6.444510000000000183e+00 7.238000000000000433e+00 1.429850000000000065e+00 1.144560000000000066e+01 1.057520000000000060e+01 8.583759999999999835e+00 2.851370000000000182e+00 3.207450000000000134e+00 4.521049999999999791e+00 3.543070000000000164e+00 5.627589999999999648e+00 9.590339999999999421e+00 7.166080000000000005e+00 6.110989999999999478e-01 1.159319999999999951e+01 2.402800000000000047e+00 3.049090000000000078e+00 1.658570000000000044e-01 1.657710000000000017e+00 9.196270000000000167e+00 2.648060000000000080e+00 9.853120000000000545e+00 9.967119999999999536e+00 6.846770000000000245e+00 5.837629999999999875e+00 2.031169999999999920e+00 1.067900000000000027e+01 5.739849999999999675e+00 7.337180000000000035e+00 2.990439999999999987e+00 7.471160000000000245e+00 5.500219999999999665e+00 6.910619999999999763e+00 2.202830000000000066e+00 5.467609999999999637e+00 1.705300000000000038e+00 2.791020000000000056e+00 1.207319999999999993e+01 1.731950000000000101e+00 7.023109999999999964e+00 8.634560000000000457e+00 6.500810000000000421e+00 3.363680000000000003e+00 8.671900000000000830e+00 3.662209999999999965e+00 1.193349999999999911e+00 4.977850000000000108e+00 8.723480000000000345e+00 4.682059999999999889e+00 5.479370000000000296e+00 1.147320000000000029e+01 1.580710000000000059e+00 5.304820000000000313e+00 1.058249999999999913e+00 5.560010000000000119e+00 1.292329999999999979e+00 4.602999999999999869e-01 1.047070000000000078e+01 1.143200000000000038e+01 4.910440000000000360e+00 3.575979999999999936e+00 2.832860000000000156e+00 6.619659999999999656e+00 1.194660000000000011e+01 1.267949999999999910e+00 5.637959999999999638e+00 9.294420000000000570e+00 1.220589999999999975e+01 6.363389999999999880e+00 3.557150000000000034e-01 7.440500000000000114e+00 8.906109999999999971e+00 1.399720000000000075e+00 4.060249999999999915e+00 3.659079999999999888e+00 8.981040000000000134e+00 6.551829999999999821e+00 2.649830000000000241e-01 9.057840000000000558e+00 4.747939999999999827e+00 7.311919999999999753e+00 9.099220000000000752e+00 3.422270000000000145e+00 5.407829999999999693e+00 6.464710000000000178e+00 6.506490000000000329e+00 5.741419999999999746e+00 6.315629999999999633e+00 9.899989999999999624e-01 7.470939999999999692e+00 4.048210000000000086e+00 1.031509999999999927e+01 1.161260000000000048e+01 9.847500000000000142e+00 9.306119999999999948e+00 2.902719999999999967e+00 4.428899999999999615e+00 2.004059999999999953e+00 9.461109999999999687e+00 1.128389999999999915e+01 1.028720000000000034e+01 1.143570000000000064e+01 4.744769999999999932e+00
7.344120000000000203e+00 3.707289999999999974e+00 8.036799999999999500e+00 6.968499999999999694e+00 1.125500000000000078e+01 3.277550000000000185e+00 3.242389999999999883e+00 9.060420000000000584e+00 6.769630000000000258e+00 1.059980000000000011e+01 1.157869999999999955e+01 1.006220000000000070e+01 1.221330000000000027e+00 1.090470000000000006e+01 4.821950000000000180e+00 9.937910000000000466e+00 3.278059999999999974e+00 1.134779999999999944e+01 5.060810000000000031e+00 4.349709999999999965e+00 3.930800000000000072e+00 1.268359999999999932e+00 7.733259999999999579e+00 4.410029999999999895e+00 3.663349999999999884e+00 3.813899999999999846e+00 1.691130000000000022e+00 8.605280000000000484e+00 1.055850000000000044e+01 1.005959999999999965e+01 1.384090000000000042e+00 1.182419999999999938e+01 1.036920000000000064e+00 6.314409999999999634e+00 7.244860000000000078e+00 3.754129999999999967e+00 1.633590000000000098e+00 3.427389999999999937e+00 7.225290000000000212e+00 1.169219999999999970e+01 1.689300000000000024e+00 9.800150000000000361e+00 1.378899999999999917e-02 4.156570000000000320e+00 2.681890000000000107e+00 8.947490000000000165e+00 1.165510000000000046e+00 3.500710000000000210e+00 4.436779999999999724e+00 1.083500000000000085e+01 1.205070000000000086e+00 2.528000000000000025e+00 9.909040000000000070e-01 2.985910000000000064e+00 1.286810000000000009e+00 2.974790000000000045e+00 1.139680000000000071e+01 1.877110000000000056e+00 9.897869999999999280e+00 2.587559999999999860e+00 5.035409999999999719e+00 7.816119999999999735e+00 1.083580000000000076e+01 6.317280000000000229e+00 1.271020000000000039e+00 5.235829999999999984e+00 1.180530000000000079e+01 4.704769999999999897e+00 8.898210000000000619e+00 5.748789999999999623e+00 6.353640000000000398e+00 6.461930000000000174e-01 8.920030000000000570e+00 6.166220000000000034e+00 3.948770000000000113e+00 5.021919999999999717e+00 2.584210000000000118e-01 9.960990000000000677e+00 3.596249999999999947e+00 1.041140000000000043e+01 9.478730000000000544e+00 2.786869999999999958e+00 9.220900000000000318e+00 1.178679999999999950e+01 -2.013900000000000065e-02 9.658709999999999241e+00 1.091559999999999953e+01 7.768519999999999648e+00 3.564900000000000180e+00 3.678620000000000001e+00 2.494429999999999925e+00 7.129079999999999862e-01 1.047659999999999947e+01 1.117800000000000082e+01 1.120979999999999954e+01 3.307700000000000085e+00 1.171930000000000049e+01 1.098200000000000065e+00 5.611439999999999984e+00 1.008750000000000036e+01 7.781390000000000029e+00 1.123600000000000065e+01 6.005480000000000373e+00 8.297449999999999548e+00 8.363659999999999428e+00 7.358740000000000281e-01 7.692890000000000228e+00 8.755039999999999267e+00 8.758950000000000458e+00 9.563060000000000116e+00 3.587380000000000013e+00 7.395819999999999617e+00 2.828289999999999971e+00 5.962439999999999962e-01 7.620309999999999917e+00 9.658259999999999623e-01 8.351240000000000663e+00 8.282069999999999155e+00 1.361549999999999983e-01 7.604929999999999746e-01 1.147259999999999991e+01 9.245029999999999859e+00 5.575140000000000207e+00 8.040879999999999583e+00 8.335760000000000502e+00 6.072669999999999568e+00 6.518810000000000215e+00 8.746679999999999566e+00 1.042249999999999899e+00 9.497009999999999508e+00 5.481670000000000265e+00 9.583399999999999697e-01 3.148130000000000095e+00 6.721160000000000245e+00 1.918609999999999927e+00 4.945549999999999891e+00 2.543480000000000185e+00 1.126140000000000008e+01 3.456379999999999786e+00 5.768110000000000070e+00 6.575280000000000236e+00 9.613390000000000768e+00 1.066060000000000052e+01 7.683080000000000354e+00 2.212400000000000144e+00 3.786649999999999849e+00 3.932650000000000201e+00 1.160270000000000046e+01 7.230260000000000353e+00 2.518250000000000099e+00 2.539200000000000124e+00 5.966370000000000395e+00 9.275119999999999365e+00 9.786839999999999762e+00 2.424119999999999830e+00 7.575899999999999856e+00 1.130369999999999919e+01 1.385769999999999946e+00 1.452220000000000066e+00 1.037909999999999933e+01 3.502549999999999830e+00 4.207089999999999996e+00 6.663129999999999775e+00 5.851259999999999906e+00 6.366600000000000037e+00 4.229619999999999713e+00 9.828540000000000276e+00 4.119539999999999758e+00 1.007160000000000011e+01 7.850189999999999557e+00 8.166420000000000456e+00 3.206539999999999946e+00 7.419139999999999624e-01 6.135159999999999947e+00 3.970040000000000013e+00 2.329649999999999999e+00 8.536210000000000520e+00 4.353029999999999955e-01 1.096829999999999927e+01 8.540240000000000720e+00 1.176919999999999966e+01 6.104560000000000208e+00 6.629929999999999879e+00 8.362099999999999866e+00 5.355299999999999727e+00 1.001050000000000040e+01 5.105339999999999989e+00 1.649659999999999904e+00 2.628439999999999888e+00 5.600720000000000143e-01 5.238349999999999618e+00 1.174060000000000059e+01
3.910800000000000054e+00 1.726849999999999996e+00 5.648310000000000386e+00 1.186930000000000041e+00 7.637749999999999595e+00 7.048090000000000188e+00 5.869460000000000122e+00 1.183949999999999925e+01 1.062679999999999936e+01 1.093730000000000047e+01 9.127150000000000318e+00 9.611439999999999984e+00 8.365800000000000125e+00 1.042220000000000013e+01 8.235720000000000596e+00 5.212259999999999671e+00 5.387590000000000323e+00 7.997560000000000002e+00 3.033949999999999925e+00 9.422629999999999839e+00 9.445190000000000197e+00 9.838720000000000354e+00 3.052360000000000184e+00 5.342530000000000001e+00 2.143330000000000179e+00 3.527839999999999865e+00 1.134970000000000034e+01 9.319849999999999524e-01 7.800209999999999866e+00 1.005659999999999954e+01 1.197840000000000060e+01 1.020899999999999963e+01 1.867089999999999916e+00 3.247930000000000206e+00 1.224220000000000041e+01 9.022069999999999368e+00 6.272850000000000037e+00 2.006360000000000088e-01 2.784520000000000106e+00 9.231519999999999726e-01 5.427389999999999937e+00 8.704620000000000246e+00 2.317169999999999952e+00 4.413389999999999702e+00 3.649950000000000028e+00 1.070770000000000088e+01 6.252340000000000231e+00 6.792010000000000325e+00 4.895720000000000072e-01 7.624509999999999899e+00 5.820250000000000146e-01 4.827280000000000015e+00 1.001939999999999920e+01 3.608480000000000132e+00 8.456810000000000827e+00 8.729309999999999903e+00 6.257399999999999629e+00 9.633089999999999264e+00 3.259850000000000247e-01 4.635620000000000296e+00 1.216549999999999976e+01 1.236239999999999917e+01 3.759850000000000136e+00 6.152499999999999858e+00 2.542489999999999917e+00 6.171459999999999724e+00 1.140249999999999986e+01 8.560460000000000846e+00 3.550250000000000128e+00 1.523959999999999981e+00 1.097720000000000029e+00 6.595970000000000333e+00 9.178469999999999684e-01 2.468420000000000059e+00 4.411800000000000388e+00 1.000849999999999973e+01 4.219140000000000335e+00 8.632099999999999440e+00 3.573939999999999895e+00 1.296130000000000004e+00 1.148799999999999955e+01 8.332039999999999225e+00 5.987890000000000157e+00 7.072499999999999787e+00 9.666900000000000048e+00 4.618520000000000181e+00 3.159720000000000084e+00 5.205320000000000391e+00 5.338250000000000384e+00 2.429840000000000000e+00 6.658570000000000100e+00 1.229519999999999946e+01 5.402180000000000426e+00 9.319050000000000722e+00 7.358620000000000161e-01 1.851480000000000015e+00 8.679840000000000444e+00 7.904320000000000235e+00 9.171620000000000772e+00 8.632210000000000605e+00 6.343699999999999894e-01 7.580000000000000071e+00 2.267609999999999904e-01 1.713459999999999983e+00 8.996439999999999770e+00 5.673269999999999591e+00 1.160309999999999953e+01 8.051479999999999748e+00 7.130080000000000418e+00 6.884629999999999583e+00 9.252610000000000001e-01 8.525339999999999918e+00 1.396819999999999951e+00 1.131179999999999986e+01 1.506070000000000020e+00 8.773020000000000707e+00 4.539570000000000327e+00 6.580119999999999969e+00 2.921489999999999920e+00 9.461579999999999657e+00 7.725830000000000197e+00 1.039600000000000080e+01 3.857349999999999834e+00 4.491329999999999600e+00 7.782490000000000130e+00 7.478270000000000195e+00 2.456510000000000193e+00 1.215310000000000024e+01 3.482569999999999943e+00 1.217810000000000059e+01 5.691690000000000360e+00 2.831620000000000026e+00 8.452400000000000801e+00 1.089160000000000039e+01 1.179400000000000048e+01 4.978150000000000297e+00 4.291369999999999685e+00 1.117280000000000051e+01 7.881230000000000402e+00 2.530299999999999994e+00 3.729890000000000150e+00 2.873099999999999987e+00 6.078809999999999825e+00 2.531709999999999794e-01 5.899759999999999671e+00 5.096860000000000390e+00 5.286900000000000155e+00 9.109809999999999519e+00 4.922450000000000436e+00 6.145199999999999968e-02 3.053869999999999862e+00 2.408399999999999874e+00 8.314790000000000347e+00 5.064599999999999658e-02 5.716620000000000035e-01 7.469719999999999693e-01 4.240330000000000155e+00 2.401199999999999779e+00 2.269629999999999814e+00 9.814880000000000493e+00 8.330339999999999634e+00 8.844570000000000487e-01 3.884609999999999896e+00 7.698030000000000150e+00 2.667699999999999960e+00 1.092810000000000059e+01 1.169250000000000078e+01 9.298999999999999488e+00 3.029380000000000184e+00 5.407560000000000144e+00 5.765719999999999956e+00 8.457959999999999923e+00 7.300609999999999822e+00 3.930909999999999904e+00 4.958280000000000243e+00 1.001299999999999990e+01 6.093439999999999968e-01 1.215659999999999918e+01 1.126559999999999917e+01 6.239460000000000228e+00 2.147349999999999870e+00 1.057690000000000019e+01 5.007340000000000124e-01 5.710230000000000139e+00 8.450850000000000861e+00 1.023629999999999995e+01 1.213429999999999964e+01 3.619720000000000049e+00 6.293910000000000338e+00 1.193629999999999924e+01 3.506920000000000037e+00 1.185319999999999929e+01