-1.049927153666699814e+04
-1.049751621711400912e+04
-1.049706307169214233e+04
-1.049725462158912160e+04
-1.049863094841365819e+04
-1.050041563330270583e+04
-1.049627257223678134e+04
-1.050062597662824010e+04
-1.049692623066124361e+04
-1.049815721217333157e+04
-1.050014761290570641e+04
-1.050006605515000410e+04
-1.049768420438062276e+04
-1.050613516193531541e+04
-1.049807076430148663e+04
-1.049787307923234766e+04
-1.049974661346996436e+04
-1.049795848285881402e+04
-1.050184159168931001e+04
-1.049826592668179546e+04
-1.050633589126975676e+04
-1.049534815276521840e+04
-1.049727562317057345e+04
-1.049841135461737940e+04
-1.049937999742667853e+04
-1.049887724159422396e+04
-1.050127826830436607e+04
-1.049939992688116581e+04
-1.049820065976442675e+04
-1.049594577067460159e+04
-1.049441904616205829e+04
-1.049666527629489428e+04
-1.049950198266728512e+04
-1.049747679750015050e+04
-1.049925075248161920e+04
-1.049725143309695341e+04
-1.049714812686011828e+04
-1.049691700762061373e+04
-1.049675640571498298e+04
-1.049707807459470314e+04
-1.050069432514570144e+04
-1.049686156170655158e+04
-1.049840710242095338e+04
-1.049704306907433420e+04
-1.049762524531778581e+04
-1.049932479283230896e+04
-1.049777518108669938e+04
-1.050039624056719913e+04
-1.049971275055545084e+04
-1.049825079910110617e+04
-1.049843234215908160e+04
-1.049687276571069560e+04
-1.049725188859804075e+04
-1.049893528192759732e+04
-1.049661899908919622e+04
-1.049959909657777098e+04
-1.049356039627629252e+04
-1.049989761718015143e+04
-1.050102170292938354e+04
-1.049921927880199473e+04
-1.049604922676885690e+04
-1.050016142725404279e+04
-1.049768297636678653e+04
-1.050094769620063562e+04
-1.049961272057776659e+04
-1.049866576330883436e+04
-1.049677356617861733e+04
-1.049838005581387552e+04
-1.049763843587915653e+04
-1.049325414387243654e+04
-1.049911971304283725e+04
-1.050096774422002454e+04
-1.050092881643674809e+04
-1.049564693038841142e+04
-1.049812520444413531e+04
-1.049674211886208650e+04
-1.049988852815866085e+04
-1.050095286835146544e+04
-1.049792578700134072e+04
-1.049712393602761222e+04
-1.050022958465881675e+04
-1.049796050434251629e+04
-1.050019273163330763e+04
-1.049935904079161264e+04
-1.049768482882970602e+04
-1.049987636920775185e+04
-1.049654498700277509e+04
-1.049739595916023245e+04
-1.049881575092256753e+04
-1.050059646579995206e+04
-1.049779669127491979e+04
-1.049786447302345550e+04
-1.049969894384638792e+04
-1.049662457412148979e+04
-1.049938251959455010e+04
-1.050691877029847819e+04
-1.050010823329644154e+04
-1.049794153981706586e+04
-1.050029423954718368e+04
-1.049990655859238359e+04
-1.050928035671048019e+04
-1.049940431787732086e+04
-1.049888607846215018e+04
-1.049660447442352961e+04
-1.049890295762485766e+04
-1.049708461525300845e+04
-1.049511545184994429e+04
-1.049763545834622710e+04
-1.049565752322043409e+04
-1.049983482211274350e+04
-1.049668072358361860e+04
-1.049660316472836348e+04
-1.049772108193132954e+04
-1.049761843450461129e+04
-1.050927148575334104e+04
-1.049845149124382078e+04
-1.050082641015681475e+04
-1.049762874050696882e+04
-1.049739139916388558e+04
-1.049686906671866927e+04
-1.049353309422514030e+04
-1.050071634351199828e+04
-1.049700012051087833e+04
-1.049961223037058335e+04
-1.049561080608063821e+04
-1.049880365326475476e+04
-1.049846899637893148e+04
-1.049951198295499489e+04
-1.049915418215806494e+04
-1.049708260372539917e+04
-1.049943832576275054e+04
-1.049722435748775933e+04
-1.049817335964832819e+04
-1.049965447872845471e+04
-1.050918811626077331e+04
-1.049677878780912761e+04
-1.049719353834044705e+04
-1.049734401699674709e+04
-1.049762297277495054e+04
-1.050150456161578950e+04
-1.050041414488490591e+04
-1.049892625628933092e+04
-1.049970646671097165e+04
-1.049847198948273399e+04
-1.049625061664037457e+04
-1.049823611100949893e+04
-1.049658753925634119e+04
-1.049734086037453199e+04
-1.049878710435570611e+04
-1.049742602881258244e+04
-1.049735970210754931e+04
-1.050136190097332110e+04
-1.049601912021147473e+04
-1.049891612007611548e+04
-1.050104557761728029e+04
-1.049977335018779559e+04
-1.049594301448408623e+04
-1.049647806974437117e+04
-1.049883687269209440e+04
-1.049560480678716340e+04
-1.049897645741783163e+04
-1.049976151713115541e+04
-1.049923181477081562e+04
-1.049719494877839315e+04
-1.049671305893737735e+04
-1.049937295704483040e+04
-1.049928895342433862e+04
-1.049681528870785405e+04
-1.050094794715133503e+04
-1.049699293759382272e+04
-1.049731529719768878e+04
-1.049753561636612358e+04
-1.049819429517129356e+04
-1.049829914786347581e+04
-1.050099283545568323e+04
-1.049882295962899116e+04
-1.049643649311572517e+04
-1.049685530972851848e+04
-1.049882401354542526e+04
-1.049562172866903165e+04
-1.049729537327725666e+04
-1.049562001381002847e+04
-1.049834469131191872e+04
-1.050035101970458527e+04
-1.049709854226892821e+04
-1.049750754592326484e+04
-1.049737244442401061e+04
-1.049904060679781105e+04
-1.049744456740653368e+04
-1.049951220129863759e+04
-1.050104080852637162e+04
-1.049722450625966485e+04
-1.050142837799632434e+04
-1.049923893720244268e+04
-1.050061582232897126e+04
-1.049913270875867784e+04
-1.049779397403582516e+04
-1.049856356293962017e+04
-1.049848756976539698e+04
-1.049801444444349909e+04
