-1.077373984821235586e+00 -4.751079821568495176e-01 -9.930268887983357828e-01 -3.451536298532738023e-01 -4.962820451148323153e-01 6.239517151510665105e-01 7.816153604228977345e-04 6.636192089131605076e-01 8.636674897658189742e-01 1.561562589116050948e+00 -5.982720510167514050e-01 5.746703524557709164e-01 -4.237846493324491648e-02 -7.522456490343755187e-01 -7.243980307161504428e-02 7.370118628156067941e-02 -8.200178714306229910e-01 6.573189777316463811e-01 -1.251520458226616506e-01 1.303914398406543496e-01 1.803371755923093879e-03 -1.120605027562099565e+00 -2.318985925692596262e-01 6.690925733186482427e-01 3.374922566592338247e-01 1.267188760879304488e-01 -4.108417160286041425e-01 -4.352507409816002704e-01 -3.678050486865821478e-01 -4.751064394949540137e-01 1.863329881597639362e-02 3.948808218363895062e-01 -5.648914186997431308e-01 -6.201253994294173566e-01 -1.076327031614774166e+00 3.929638073208259752e-01 -4.119812289487996826e-01 9.161035960375580878e-01 -8.924566460609743013e-01 -3.070406250612841004e-01 1.720793064653150795e-01 1.240824669083987475e-01 -3.345771398972355315e-01 -1.144382589579175047e+00 -3.220478456696564962e+00 1.565560140308108528e+00 4.006539768702499504e-01 1.087118980015560760e-01 -6.093380790143176906e-01 4.937356245458754955e-01 2.890017652957345695e-01 2.346147059467292018e-01 1.171737584532080989e+00 4.653192782088164670e-01 1.529215026048443560e-01 3.645469467631350380e-01 6.611298668343399410e-01 3.438721920386856867e-01 2.888634399457649660e-01 4.615793515533192504e-01 -1.365047004004251274e+00 5.240432743669052318e-01 -6.405075626143399425e-01 1.617554016836450392e+00 2.044428103725097479e-01 8.369701830010582988e-01 -2.298478806894132254e-01 -7.763713384192183486e-01 6.952088107694101016e-01 -5.225618047265246924e-01 -1.118573341845632063e+00 -2.359516795895578445e-01 9.023991019779328271e-01 -2.021933522184505616e+00 -2.008104072511339044e+00 1.172757284045053833e-01 2.496849700045672762e-02 -4.179071075103217396e-03 2.396057313995348659e-01 -1.165573621818009192e-01 3.912725356626478024e-01 -8.341867067208155184e-01 -5.203491133476433328e-01 1.770425640040004800e-01 5.089652969995892701e-02 8.507415257428251332e-01 -3.473827762923746287e-01 1.553311404857270484e-01 -6.018309720098349302e-01 -6.294348497485595662e-01 -4.897406444569771811e-01 1.071457876451718638e+00 3.564474575907528031e-01 1.565282461166905559e-01 -4.710631226666611160e-01 -1.989185381244681916e-01 -3.080423268521418900e-01 -1.765369308566953288e+00 5.851907923629368069e-01 3.676533536001841962e-01 2.227986871575992289e+00 -1.397911873027506635e+00 -1.430433242668681382e-01 4.000569667166637977e-01 2.489105537329903695e-01 -7.376016738803470307e-01 -5.001361287506016495e-01 -2.938097282035991298e-01 -6.587099445408199916e-01 -7.172045982971005929e-01 -4.450990945229288398e-02 -9.733990872803476024e-02 8.433264642314447501e-01 -2.277370049956395637e-01 3.282635389792931679e-01 5.892459362657624933e-01 2.171543443920189997e-01 1.049990707733577722e+00 -7.734382239351049737e-01 -1.212580586658600357e+00 1.106819286642640732e+00 -1.499082211242245499e+00 -2.141667225209288594e-01 -7.100975549442027634e-02 1.232254668033455625e+00 -3.630690766671776371e-01 1.894147124064839760e+00 -1.629308072039441779e-01 -1.242238775821594560e-01 -1.272834903417096042e-01 7.191771486409046510e-01 -3.990285254529494230e-01 -1.111410762664493262e-01 1.556653838964342229e-01 1.669700102671822228e-01 4.231542148377922530e-01 3.662037656389788842e-01 3.230812234514366388e-01 -1.730987488679719410e+00 -1.014444178115186945e+00 -1.130188043257389863e+00 -1.939979608982269621e-01 -9.383498090129629987e-02 -2.990537502072785347e-01 1.201001880691072499e+00 3.504968964389016395e-01 -2.615840354257422118e-01 1.292293012126571328e-01 -2.547032491508613994e-01 3.582940238797519550e-01 1.567604167319740727e+00 2.325283071550319214e+00 5.731271763395676677e-01 -7.025451965241163998e-01 1.775650121659673730e-01 -1.099275155752664213e-01 -1.119309191569819589e-01 -2.174253386650077113e-01 -1.581896929782210803e-01 1.172505830156075568e+00 3.703864362585050918e-01 -3.649660365780986737e-01 -5.354137209785309048e-01 -5.514013546436022928e-01 4.810230620851025374e-01 4.160404866166801663e-02 -1.256827215147382493e-01 4.856988702905798427e-01 -4.811588163319129308e-01 1.439044381369761538e+00 3.110128765982543619e+00 9.305902196782382674e-02 -1.110146294130756717e+00 -9.952832889309251030e-01 7.803467781241061330e-01 4.427861301208352862e-01 5.285025956863705909e-01 -4.762680639023192386e-01 -1.066737331051269999e+00 1.022944245159786159e-01 -5.657995323356029838e-01 1.176619080990301131e-01 -4.875603489779027910e-01 -7.747566856351867370e-01 -3.818468714807058406e-01 5.954983449285138064e-02 9.532519229241837033e-02 2.171215885377696608e+00 2.860624287419757827e+00 -1.081782398298146930e+00 9.581884409900126576e-02 3.252733460050437619e-01
-1.068249139708929984e+00 -4.211487543735493722e-01 -1.112429947956834253e+00 -3.636763712334009080e-01 -7.270231270417812919e-01 9.256228483744980418e-01 -8.789881792713713504e-02 5.312202517257357259e-01 2.918243223439985767e-01 1.317517076781061114e+00 -1.150866911746894067e-01 3.652216042321316802e-01 7.942189081097168757e-02 -2.076986497251765762e+00 1.123762342241702572e-01 -1.717188378023832077e-02 -2.352677661491877625e-01 6.503687716714648959e-01 1.237389675263181193e-01 8.524333116216351591e-01 -1.246763917381937814e-01 -1.912390643641868504e+00 -4.610003391218481239e-01 2.460972526560997742e-01 3.507817746689504412e-01 -3.302859687243874243e-01 -3.045199155239202704e-01 -9.953465380686435937e-01 -7.982606822761142418e-01 -1.838061079748178339e-01 1.965063291404262058e-01 3.453454341489565205e-01 -8.561002189474087309e-02 -4.710842057125672055e-01 -9.219507988424060496e-01 3.966183733514348775e-02 -3.513155356848182698e-01 1.140144383131408201e+00 -1.024440112977858641e+00 -3.397316875109717693e-01 1.245653200817126022e-01 5.097109169157822139e-02 2.966682806960931340e-01 -1.042041370985697712e+00 -2.989336796897398507e+00 1.054167207705521525e+00 5.124784523564375194e-01 1.280861887480386485e-01 -1.566121669238096592e+00 1.286718346256607859e+00 1.172397329602753863e-01 2.306670341559616810e-01 1.634670879009080258e+00 7.719670387073617190e-01 -4.779577928986019492e-02 1.125244326102714965e+00 2.227987385796623698e+00 4.797904752305409137e-01 3.215251918194368397e-01 3.668228872797348883e-01 -3.415666838357541035e+00 6.086911894594413397e-01 -4.894840483616804128e-01 2.041580864086504299e+00 9.575456652001912428e-02 7.753141008001200873e-01 1.632511666575912068e-01 -2.592103929890894887e-01 2.181442191083440285e-01 -2.291485406300874661e-01 -8.764751830434854840e-01 3.745428816258065952e-02 1.016440382608056359e+00 -2.329732622677779474e+00 -1.895455301352284350e+00 5.903252853720306059e-02 -6.308458711623755877e-02 1.184604927403043045e-01 2.398597563916723407e-01 -1.443273331846154917e-01 4.866378371643509948e-01 -2.559137245182531717e-01 -4.090661121868013894e-01 1.758557427856741184e-01 -1.838184492699823924e-01 4.266905101230739628e-01 -2.149087428926987342e-01 4.135362321395358309e-03 -5.473724359930012273e-01 -1.146016268526585336e+00 -4.719223853424944215e-01 1.577809389979578203e+00 -9.411831646944959773e-02 1.942771827013253794e-01 -6.248731985233546560e-01 3.779346809135364915e-01 -1.384760166147127602e-01 -1.673975333005083055e+00 5.419458656650125716e-01 3.856803862912010494e-01 3.301892952455982577e+00 -1.397669160889270179e+00 6.876466821573185006e-02 5.532083259439483092e-01 8.716759618863624548e-02 -1.042164269716711278e+00 -5.371250472413516830e-01 9.263088186973954530e-01 -8.313060427411514963e-01 -9.006204128123388442e-01 -8.758462912107239928e-02 -2.284486863501298815e-01 1.012725652763520445e+00 -7.572731841520430329e-01 1.398901233523199839e-01 8.024366680274263031e-01 -2.329584012915172364e-01 1.020666761981290804e+00 -8.317503293670762687e-01 -1.198912088043204927e+00 1.671801208173590902e+00 -2.071340354713974818e+00 -8.985285632819439705e-02 5.785547751088199880e-02 2.321053092632661963e-01 -5.387669537188715108e-01 3.491180652366397741e+00 -3.937541644319904055e-01 -4.647438653217683124e-01 -4.993951368200955088e-01 8.813186271749480216e-01 -6.760756894992685506e-01 -2.782797509008807513e-01 3.021668419125418392e-01 1.652612551075208769e-01 3.875752893195947291e-01 6.169115204803101715e-01 2.783820808066203023e-01 -1.089259166285350355e+00 -7.311086099618865353e-01 -7.257545447429897267e-01 8.711118618532150970e-01 -5.746842364128310621e-01 -2.838096795758727753e-01 1.360437530260283356e+00 5.118670440251592568e-01 3.889775689826691640e-01 1.725235930912396853e-01 -1.518226131145656022e-01 4.462046688814217954e-01 1.150462734330254255e+00 1.591507713391621115e+00 4.442758272913254758e-01 -5.159041902058699725e-01 -2.123978035473401693e-01 2.046536408315711986e-01 -2.996317341974860105e-01 1.596583071028051803e-01 -1.793344453601879163e-01 1.277200636581563575e+00 1.912767053144387996e-01 -3.606496685942895408e-01 -6.508007170022249710e-01 -1.253426159888278990e+00 4.265465283461540302e-01 4.094738891478640584e-03 -5.783048638817374076e-01 7.687469891106719633e-01 -7.903159735139210218e-01 1.581130226820111506e+00 2.902124463513791053e+00 1.862337435778155248e-01 -1.620628541994324712e+00 -2.569454053719481657e+00 1.221962542086834302e+00 5.032651612954526232e-01 8.614326868997676523e-02 -6.243409801693824424e-01 -1.011248811108826695e+00 2.039450448008719996e-02 -1.102110054096092862e+00 1.567817568881961499e-01 -4.558545332588533894e-01 -6.956289290256374436e-01 -3.356210077799055558e-01 3.512348030456167169e-01 3.316841346224070897e-01 1.957199315281270557e+00 3.089172732572468494e+00 -1.084475371747183114e+00 3.226276808541386210e-01 7.151677703743143655e-02
3.288003853189520598e-01 -1.856886697080469550e-01 2.923318581076416178e-01 1.683889506787289214e+00 1.173572837967179261e+00 -1.137451409682372239e+00 4.910344235667297302e-02 1.355843997355903330e+00 -2.943681718097960198e-01 -1.192723442738804041e+00 7.236138442525682501e-01 3.748508997842890378e-01 1.946451075634191952e+00 -4.692062719650248459e-01 -2.105934033501533964e+00 6.505502915545104958e-01 5.788915896226864977e-01 3.918083535610429324e-01 6.805257548473604423e-01 9.203947672104062505e-01 2.453547180636980740e-01 -4.655131393870265977e-01 -2.256264378342449639e+00 5.802373050162566992e-01 2.128602935836324761e+00 -2.406325271572272495e+00 -3.637164804426857301e-01 -5.647998874272726066e-01 -2.403498086538321810e-01 -8.055543877183763968e-01 -1.198241544339263331e+00 2.732619859752184688e+00 2.375287942674637887e-01 -1.324404033703524108e+00 -1.461500910583595880e+00 -4.564607993838129540e-01 -5.820123946374275992e-01 7.955898203142481862e-01 6.619032546646531623e-01 -1.553732551554761532e+00 3.800399001803597687e-02 1.813885510962045533e+00 -2.774446565947446541e-01 -2.393182820663267152e-02 -7.151574859616772750e-01 2.980155387515589505e-01 -2.091427869476842893e-01 5.379092337049338202e-01 -2.979291496854069021e-01 1.154340472115089167e+00 1.052043990716583152e-02 1.761090992909901454e+00 -1.576240502831781909e-01 1.119379639796383996e+00 -8.033884904169941166e-01 -2.463569340751876613e-01 -2.320436027874433205e-01 -3.428751182335146863e-01 -1.185355689525554451e-01 -3.477087921729720144e-01 -2.091088998080449013e+00 -7.685063338549629197e-01 1.789199835309110143e-01 5.531862144567785133e-01 -2.940334141784569644e-01 6.814719208099777603e-01 -3.640661504723485820e-01 8.520209066748859472e-01 8.912132605731437618e-01 -2.584868845600664100e-01 5.182876028345279051e-01 2.759945544129074890e-01 1.119888204001290744e+00 -6.551597652984781917e-01 -3.618981962884388337e-01 -1.713069470762656199e-01 -8.271897065831350648e-01 -4.839572050104795631e-01 -4.509154440898652250e-01 5.930871643857356101e-01 3.010710377460542111e-02 1.396258139475453908e-01 1.384029972849890600e-01 5.371702986569550087e-02 1.334033843476313486e+00 -8.513133390854503713e-01 -1.352440885214272637e+00 1.630897013791880734e-01 -2.919101971895187719e-01 -6.500005896990553034e-02 9.368174315300287214e-02 6.594396236174253634e-01 -1.625919872296134772e+00 -4.775083640663588258e-01 -7.261571794977338401e-01 7.932022939205353174e-01 -2.727813439506215687e+00 6.295834595111662324e-01 -4.460133788063709304e-01 2.159310135088308158e-01 -1.147908086231188118e+00 1.647372642836584244e-01 -9.486146812660959382e-01 7.137608627255531690e-01 1.147589783660068363e+00 2.967361578194982474e-01 -3.686087755341748567e-02 1.714540141769767545e-01 -1.052649228400279080e+00 1.071988552143795292e+00 2.096279026917783117e+00 8.473301860710847899e-01 -1.098059023958322111e+00 2.122342813864095887e-02 -6.042195268448113943e-02 3.982895904049707503e-02 -2.827472997504558161e-01 5.836887538972820311e-01 2.594687888565976763e+00 -2.929608527845292798e+00 8.413071198101418346e-01 -3.657779909558011577e-01 -2.968960804360058492e-01 2.396108736058534805e-01 -2.218059842277989302e-01 -6.383097836337824349e-01 -8.601090829933670801e-01 -1.141250985931164946e-01 5.664618485094350397e-01 7.627892288699749113e-01 1.298627696090419725e+00 -3.390431460849150369e-01 1.086465919813101921e+00 -2.353526639755074257e+00 1.838318190064107016e+00 6.744569229501821972e-02 1.004303747254963602e-01 3.608507288613457265e-01 -7.108591156999830574e-01 5.230163757650864165e-01 -2.903958174286993751e-02 7.437913476260117340e-01 -4.767442322074190164e-01 8.415308057849993917e-01 7.368591392879452195e-01 5.395814791997333160e-01 -7.647998315405364345e-01 2.928568773727677765e-01 -2.215394122522441833e+00 1.001048216434675897e+00 4.204000491335653233e-01 2.242978974097787834e-02 3.365610030949404696e-01 8.294882728075364531e-01 4.380306177174201343e-01 3.881069934529350340e-01 -9.546125507160777568e-01 -2.664742736347038288e-01 -5.610321928576550432e-01 1.130394759951396377e+00 -9.114031052417517209e-01 4.220568680094090308e-02 -6.529810124812993610e-01 6.868604388112089509e-01 -1.687445856677213529e-01 4.625111193382444030e-01 -7.678471030049219825e-01 -2.165038552927196769e-01 1.744992801808981087e+00 5.496092957415800173e-01 -1.267340970186334070e+00 -1.603107502405055174e+00 8.971627932837311636e-01 1.484473717311814989e+00 -2.945352935151495516e-02 -7.730073070456087991e-02 -5.379452291491637617e-01 -1.051504059053133128e-01 -1.074258322012812926e-02 -4.179436171751835793e-01 -4.455870899025612952e-01 4.496730870432983918e-01 7.516296127174105779e-01 -5.982262853805161429e-01 -4.691563925637346477e-01 -8.637641632446080298e-01 -3.890629296075575061e-01 -3.552385248852565902e-01 6.228240293054038146e-02 -6.786190247444341406e-01 2.884268666293182681e-01 -3.385721199861339015e-01
-2.222397293307704746e+00 1.801450627642475100e+00 1.780021511251091537e+00 -9.369922665448601751e-02 -4.478820565825398226e-01 1.996410181122275015e-02 3.874271937776198604e-01 -1.853557118489194133e+00 5.445791895207531264e-01 5.800665837664801400e-02 -3.297846036083267318e-01 2.255680223704659981e-01 9.536941526675810077e-02 7.504520474704576838e-01 -4.888273886147987413e-01 -6.936784901690030980e-02 -2.173070679196805743e-01 -3.385582360290737558e-01 -2.788680193037253452e-01 3.383479197906441582e-01 -3.270556347150607168e-01 -6.501137182380638257e-02 -4.387227586878999497e-01 7.353442453064940043e-01 1.645090017451770192e+00 -8.985907839783985329e-01 -2.199450711831710592e+00 1.621918721559654220e-01 -1.250635998739822209e-02 2.391743002894066925e-02 2.210922459907811999e-01 7.346083955823063949e-01 4.190106249862871612e-01 -2.468459578960838507e-01 -6.667852653435050181e-01 -9.166044469329870381e-01 5.941726841395860159e-01 1.189025167954487205e+00 4.499224840497490496e-01 7.665836629124489487e-01 -8.397192064989668081e-01 7.050185977633492973e-01 5.173563492702346611e-01 2.215704711784083625e-01 -3.586791751330128952e-02 -1.733941686209738708e-01 1.139049607406184439e+00 -1.540567989158586393e+00 -1.777876696995615291e-01 -1.024774870609197475e-01 -8.238400733872173198e-01 1.804791004867019322e-01 -3.610857276901045104e-02 -6.839869739203909837e-01 1.172263632238470937e-01 6.363855700293729045e-01 8.256007648306963320e-01 -1.400545196883247190e+00 1.760488326329364694e+00 -1.760161796228135733e-01 1.919169614231641230e+00 -2.171224627128438556e+00 -6.688997405817017627e-01 -3.128004103587162521e-01 1.560346457321708735e+00 -8.008780652922673493e-01 -6.835339455437249301e-01 -2.550534334011560905e-02 -1.073205198158769580e+00 -1.474939038355919420e-02 5.307533393920095266e-01 -3.444769155017497475e-01 -7.071896372710503309e-01 3.782452701751781721e-02 -6.097720812276050673e-01 6.331120414869702007e-01 -2.075954970664260768e-01 2.589779652634900398e-01 4.284542868903440938e-01 -1.175021911707752498e+00 -4.378897212642913345e-02 -6.328472178615637267e-01 -1.475000744831742316e-01 -1.400994111494858474e-01 6.293700579489455715e-02 1.495271322139551939e+00 2.355097583785397575e+00 -9.499639962040892227e-01 -2.047950515053319209e-01 9.771431277008997274e-01 3.260107383911269308e-01 8.121600659552136170e-02 7.587916776779173311e-01 8.768829600045482398e-01 5.005207657832309032e-01 3.996342773572771900e-01 7.822838472443119709e-03 -1.975265428740308193e-01 -2.396694947578851820e-01 -9.612017738926957600e-02 9.232533197029002547e-01 7.738290316153165760e-01 -1.755332236053733119e+00 -1.161467570072629796e+00 4.131402822530056973e-01 -1.959537476494324970e+00 6.165453953904278389e-02 6.680816155564169856e-01 -7.904136754339738946e-01 7.886961785235708788e-01 -1.180547726617690030e-01 1.281714465288005700e+00 -1.695273837355974811e+00 2.128890899390165181e+00 1.516158964205590043e-01 4.580625966520480707e-01 1.985493277107947263e-01 -3.887230297698999193e-01 1.008126463432189812e+00 -1.134591828748614667e-01 -8.173979173113107288e-01 -2.713285163994355043e-01 7.595835774509772653e-01 4.940292445266659671e-01 1.753366370578143041e+00 1.018928182024981671e-01 8.499264860413315859e-01 -4.068770749569853851e-01 -3.189391762618271620e-01 -1.420091237320769917e+00 -1.060438128311019579e+00 8.126408622460000730e-01 -4.917574177751209974e-01 2.870430989089906015e-02 -2.519100026786131874e-01 -1.130169531314643011e-01 -3.643376589659692022e-01 -5.259726301776332935e-01 3.123242420536164854e+00 -1.969534954018891781e+00 -6.902851482193776977e-01 -4.010046753411765641e-01 4.075841283257889969e-01 1.943388891771482274e-01 2.041297014297719148e+00 -5.022259213984692217e-01 -7.619515634606795207e-02 9.990705238845533076e-01 -5.595738631457081169e-01 3.930496821663461565e-02 -2.589363133923096028e-01 -2.866296655209774613e-01 2.960440168490184876e-01 1.061037709567764997e+00 7.014889873462818448e-01 -4.960269916814311619e-01 -3.966451128242914348e-01 5.634839968303502200e-01 1.327889421146251969e+00 -3.823220113445418566e-01 -8.717428105685037787e-02 -1.176527549717830468e+00 2.824865898901042227e-01 -4.328477879689317520e-01 9.037329902969702955e-01 -6.944451931311022008e-01 -2.831859299494300375e-01 -3.938770631630043040e-01 -1.899721275714171542e-01 1.742150704376706383e+00 -1.456060970519179154e+00 6.524997019698810519e-01 -7.648877632685840977e-02 -4.044257852049222834e-01 1.178994780309481072e-01 -4.759070810187555622e-01 -1.411432790321559202e-02 -4.130785757771828770e-01 2.581670393270512620e-01 -1.752978134001090954e-02 -1.435056600369709168e+00 -1.745306990615045795e+00 5.070241141143284613e-01 -5.659738531298025288e-01 3.485104621380373802e-01 -1.024774870609197475e+00 -1.128863410909725640e-01 4.980705044724315078e-01 -4.164724319474401304e-02 6.573991961502161363e-01 -9.673719072543497388e-01 -1.033383952427750163e+00
-2.675464236521259975e-01 4.490894466261405316e-01 2.183288243151807473e-01 -1.668356958381411514e+00 1.080963759052230300e+00 -9.675061188392644618e-02 1.836477280202058193e-01 -5.910914741134978140e-02 1.845573843179611762e-01 1.566865232271761998e+00 1.101491960896600508e+00 1.829444284620147743e+00 2.133707089828139336e-01 7.800690989829032196e-01 7.876322560362585268e-01 -6.803910290418138662e-02 -1.309714807133892378e-01 -5.770157127576714950e-01 5.113769917629994444e-01 5.420435675850654444e-01 1.505684289934659525e-01 3.114917188506397538e-01 -2.371194746445054735e-01 2.219684779474658323e-02 -4.645736582926236480e-01 1.009235123114474053e+00 -7.231628727584296090e-01 -3.224966574371414207e+00 -1.574572885322669036e+00 9.803852887847591679e-01 -1.162380311694176105e-01 8.388429745422820716e-02 -1.138594522146990862e+00 -4.534988885443156925e-01 -5.993652840800797743e-02 -2.683959161359540935e-01 -1.565462438388055544e-01 2.528433131254340105e-01 -2.901546479523583466e-01 2.837212336271933144e-01 1.297085034194848330e+00 -2.952536597378540573e-01 2.081621682027326448e-01 9.288110162920125701e-01 -2.282123505477283043e+00 -1.706811405672954418e-01 -2.986326035097875420e-01 4.374937713777612980e-02 2.484966061243453206e-01 6.081327458532444913e-02 -9.538587032697751211e-02 -1.836127610172395286e-01 3.922372135680117777e-01 1.021628354562863716e+00 7.871488886423128051e-01 -2.413395291039677204e+00 2.454591048519650098e-01 -2.112058401226952764e-01 -1.029165800584625812e+00 -9.819557185944509381e-02 -1.491729370427319790e+00 1.003235711002596231e+00 -1.626743139527738302e+00 -2.026867469147175249e-01 1.868436092471981447e-01 -2.390719703836671484e-01 -2.580924773354320231e-02 -8.417498637741707146e-01 2.663976547605571565e-01 -4.932815677279456246e-02 -2.811815493485139150e+00 1.208850430195108627e+00 2.663318345196794001e-01 -5.001824086074688203e-02 -1.744107828101554569e-01 1.929130067870714837e+00 -4.299460409433617514e-01 -4.223036939127005479e-02 -7.133818821198742999e-01 -1.505444663120214077e+00 -4.788211693394902047e-01 -8.890360504178604351e-02 -5.474310571450330398e-01 -4.484250735697809520e-01 7.809355607475826355e-01 -2.520246738795173594e-02 9.474036916780722573e-01 -1.267047864426175563e+00 -7.803760887001219559e-02 -2.107312144794910580e-01 -1.099940043029655312e+00 -1.108130035033244587e-01 3.113647063545710303e-01 -1.652468569298288503e-01 1.630125682844094648e-01 1.754777906212591221e-01 7.292594725697281177e-01 -8.783993966478949034e-01 -3.461363054807528594e-01 1.120795289195886807e-02 1.511532521180771305e+00 -3.763256845564554309e-01 -7.746877800705179729e-01 5.791486999386150636e-01 7.082201354172921182e-01 -8.365341239052435096e-01 2.540925093064045903e+00 9.945541240749516260e-03 1.532853651239465043e+00 -6.556004523799796591e-01 -8.626256787656761960e-01 1.653512951401590492e+00 9.303469933193699859e-01 8.784662453300363660e-01 -1.806008679323257260e+00 -9.223128101672335433e-01 6.496154384457941688e-01 -5.933062223749067110e-01 -7.958541297190228070e-01 4.252717753997800609e-01 5.999684648812482202e-01 6.321725603925670844e-02 -5.004060945823267659e-01 -2.539576292346684694e-01 3.606825787147284190e-01 -6.187046078235959312e-01 1.049294452998043026e+00 1.663848271881287921e+00 1.273441683762687737e-01 -6.887563702808664479e-01 -3.114377256842947861e-01 1.904599686848600371e+00 4.682822174895774348e-01 -2.434731847717326245e-02 -2.116141313043898575e-01 -1.044592933760972953e+00 8.110627191268304781e-01 -2.358138684602200941e-01 -3.180434039211319508e-01 -1.721831790329502454e-01 -5.107486141508700284e-01 -6.189118387382344100e-01 3.833540521526792588e-01 -1.734559779409231117e+00 -1.458535400199675695e-02 -5.234231242848855770e-01 1.469758779710590435e+00 1.038982786667411173e-01 -1.837001785246552554e-01 3.871654554760045608e-01 2.666218035339836590e+00 -2.376138977820361209e+00 1.177703572302887913e+00 1.197044438708299907e+00 1.239168364428775426e+00 -2.044541232264106279e-01 8.157051029912368856e-01 6.824273427439682127e-01 -4.292060774541193169e-01 -6.878518561894296779e-01 6.387988074546786521e-01 2.182474231891577965e+00 -1.025422788605337698e-01 -1.031987843412258021e+00 -9.144128386000117958e-02 1.009641871634272992e+00 -3.822001410547917200e-01 3.472470220455642909e-01 -7.636490057664401254e-01 -2.155026677224937681e-01 1.293827960712665037e+00 5.509694093128422177e-01 -3.342434107071601940e-05 -1.452745275884963772e-01 -2.299347839761970713e-01 6.303913001238139469e-01 -1.453708925349064263e+00 1.780951736374120964e+00 4.291896223938999055e-01 -7.911459256137385321e-01 2.379093175350380507e-01 -1.851044636481940175e+00 -2.275276657764105259e+00 -7.063725406870293710e-01 -6.011799686899036432e-01 -9.434225955462339774e-01 1.983174142058271583e-01 -8.388835979721988023e-01 5.570228145910647299e-01 -3.668629964890197659e-01 2.173083020491970441e+00 3.049297493675103832e-01
-7.604232997427999852e-01 -3.424051205759972016e-01 -8.626405911640000479e-01 -3.201481089673233749e-01 -2.860532241926656005e-01 4.014813578669081395e-01 2.347468606491164705e-02 7.069093870266881519e-01 1.376642165031998433e+00 1.481622878128799004e+00 -1.007334049438497914e+00 6.619140532979220781e-01 -5.274361020958988344e-02 4.885096002643110570e-04 -1.294421885542459960e-01 3.357079110666894017e-01 -1.128520939968908898e+00 6.433733141956800017e-01 -2.327840804973176914e-01 -2.593024384821919215e-01 1.140248255699043423e-01 -1.424576269671828377e-01 1.957277991037944392e-02 1.088372649916028445e+00 1.543068129870676097e-01 3.424760830231934894e-01 -4.471276949156053893e-01 -1.055643535139583339e-01 -1.229342122374616625e-01 -5.998296253106466525e-01 -8.237300301719999163e-02 3.998394513893882007e-01 -8.140729667057222674e-01 -7.299958365145475803e-01 -1.093624385229185814e+00 5.149569958019890592e-01 -3.799509400110483992e-01 6.019754680073866604e-01 -8.100065099489958120e-01 -2.471524333926707062e-01 1.294205912877079978e-01 1.957833349320350358e-01 -4.084130519843428564e-01 -7.672398084386987671e-01 -2.454245492255042738e+00 1.869822945516100177e+00 3.483932198339739217e-01 8.299058199606046404e-02 -2.702039158775638716e-01 2.313663742152874403e-01 2.962754161333542857e-01 2.200458070049518822e-01 8.424517749366557950e-01 2.380147327645687760e-01 2.183951587766903568e-01 5.027432273541175556e-02 3.459882099387779492e-02 2.281355259853288520e-01 1.543505217407754315e-01 5.588200156994056478e-01 -2.262560495758909052e-01 3.837278905520393746e-01 -4.880051498244592501e-01 1.017053847821862034e+00 2.811609291011764045e-01 8.550218982824042691e-01 -5.513463330359935632e-01 -1.054774502271744741e+00 9.926803040924641053e-01 -5.861441574144000688e-01 -1.186334251387978433e+00 -4.177934647506812982e-01 3.800069900599208905e-01 -1.359570554274972531e+00 -1.340094447843382053e+00 1.160241153865650271e-01 5.469507750748783814e-02 -1.006406909639259439e-01 2.212177158249543640e-01 -6.531836154102510505e-02 3.578908749043758775e-01 -1.198524879907416629e+00 -5.216845443285763606e-01 1.779367936828001040e-01 2.001284992712280830e-01 1.111297634125484990e+00 -4.507298104417648554e-01 2.210439092513866444e-01 -5.352368290811720941e-01 -3.692993738427590156e-01 -3.974035882562808042e-01 5.018541398816366295e-01 4.229850362499112393e-01 6.801904829953897558e-02 -3.850175558967371403e-01 -5.886864642183018415e-01 -2.533066259147372934e-01 -1.652860919640395831e+00 5.729477133390494803e-01 3.150691517864700475e-01 1.516897899253568882e+00 -1.238683968593565998e+00 -2.713778815800937938e-01 3.139630632073452943e-01 4.924387601123317304e-01 -5.222435021554050483e-01 -5.186362444229271063e-01 -1.201205512061287894e+00 -5.468736419800998005e-01 -5.334288293395623715e-01 3.635694133419745816e-02 3.494077771406281507e-02 7.418090270902023553e-01 9.440473736139404215e-02 4.625239748540408979e-01 4.662315056097310895e-01 4.903926762181721188e-01 9.504859301454239295e-01 -7.052201722510373916e-01 -1.115760040768741579e+00 6.316305718465897723e-01 -8.607688280640399814e-01 -1.683589201938284763e-01 -2.511078184929160795e-01 1.847932573217940355e+00 -2.926738148278266172e-01 1.121406697527165042e+00 -4.088568243896355259e-02 1.879476409437954784e-02 8.251698479412000742e-02 5.241666873185509834e-01 -1.852495252884409083e-01 6.375307393765188187e-03 1.338670570913769696e-02 1.828733117486289195e-01 4.916437750154805664e-01 1.504840968098414000e-01 2.622108703759760684e-01 -2.205445495957901070e+00 -1.115648969112260191e+00 -1.478405399635268624e+00 -5.910570213311634458e-01 5.688411473730381474e-02 -2.187566558808859418e-01 9.727475697397846011e-01 2.015703739229556257e-01 -5.114494968720912915e-01 1.145652714539862199e-01 -3.431404560795529579e-01 2.696367305206254228e-01 1.693097655641955246e+00 2.507895159217964576e+00 5.150274440285534938e-01 -8.336935691348643651e-01 5.369558686534705583e-01 -3.191001273195984145e-01 1.031886541947782052e-02 -4.265794384665928529e-01 -1.199985266501890774e-01 1.058225951152770072e+00 4.876261692187804364e-01 -4.227819191003276411e-01 -4.627378906368934675e-01 -1.334109433909196341e-01 5.021729566733880157e-01 3.686447709784048624e-03 2.238546392251179185e-01 2.507874590392690228e-01 -5.835262601776152191e-01 8.855403785624954560e-01 2.265845337155212746e+00 5.462257239839599099e-02 -9.938208454539233516e-01 -4.081857664650618833e-01 4.650652532166789643e-01 4.221391433105061708e-01 8.145640474091460081e-01 -3.968482299738750330e-01 -9.972398984351417139e-01 1.075281621070208610e-01 -9.917413372186928422e-02 6.885414260567500333e-02 -5.302278059062514037e-01 -7.480820045782280436e-01 -4.171512031814916255e-01 -7.173532080597072591e-02 7.144221504581213522e-02 1.805580847757551899e+00 1.886023980743392059e+00 -8.377440850520032622e-01 -7.803195244306176948e-02 3.793395316797703032e-01