1.638949999999999907e+00 5.167910000000000004e+00 9.542730000000000379e-01 3.937330000000000219e+00 3.160280000000000200e+00 5.079979999999999940e+00 3.150319999999999787e+00 9.195560000000000400e+00 5.417530000000000401e-01 6.270719999999999850e+00 9.281629999999999825e+00 4.246150000000000091e+00 2.558450000000000113e+00 7.181040000000000312e+00 1.128420000000000023e+01 3.884100000000000108e+00 8.381700000000000372e+00 2.637589999999999879e+00 7.516490000000000116e+00 1.012850000000000072e+01 1.155579999999999963e+01 1.154429999999999978e+01 1.019180000000000064e+01 8.139979999999999549e+00 5.643650000000000055e+00 8.784739999999999327e+00 6.746760000000000090e+00 4.129059999999999953e+00 6.816309999999999647e+00 9.012090000000000600e+00 1.865550000000000042e+00 3.076490000000000169e+00 3.404020000000000046e+00 1.053790000000000049e+01 7.406939999999999635e+00 1.850479999999999903e+00 2.688590000000000035e+00 1.024360000000000070e+01 8.952230000000000132e+00 1.163289999999999935e+01 4.712259999999999671e+00 1.032089999999999996e+01 8.065519999999999357e+00 1.599490000000000078e+00 6.822160000000000224e+00 1.793549999999999978e+00 1.545339999999999936e+00 9.977199999999999847e+00 5.248960000000000292e+00 9.460240000000000649e+00 9.359009999999999607e+00 5.486010000000000275e+00 1.120250000000000057e+01 1.069669999999999987e+01 3.277839999999999865e+00 1.971179999999999932e+00 1.453440000000000065e+00 2.041310000000000180e+00 4.911389999999999922e-01 3.469889999999999919e+00 5.917550000000000310e+00 2.366950000000000109e+00 3.961869999999999781e+00 6.926330000000000098e+00 1.016590000000000060e+01 2.000529999999999919e+00 8.436799999999999855e+00 2.866080000000000183e+00 3.136240000000000139e-01 1.043360000000000021e+01 8.729860000000000397e-01 7.955949999999999633e+00 6.252189999999999692e+00 2.143889999999999851e+00 9.677390000000000825e+00 2.018699999999999939e-01 -4.534200000000000036e-02 5.493170000000000108e+00 7.107219999999999871e+00 6.977450000000000152e+00 3.213470000000000049e+00 7.990420000000000300e+00 7.114510000000000112e+00 9.355130000000000834e+00 8.045279999999999987e+00 4.968989999999999796e+00 1.094410000000000061e+01 1.447920000000000096e+00 5.540239999999999831e+00 7.699849999999999639e+00 1.165820000000000078e+01 7.230769999999999698e-01 2.899270000000000014e+00 8.318069999999999631e-01 4.877620000000000289e+00 5.087060000000000137e+00 4.864259999999999806e+00 6.811840000000000117e+00 7.784919999999999618e-01 7.406399999999999650e-01 1.051779999999999937e+01 1.091259999999999941e+01 4.030850000000000044e+00 8.685000000000000497e-01 7.965959999999999930e+00 7.290529999999999511e-01 1.495419999999999972e+00 7.328379999999999894e-01 8.817579999999999529e+00 8.684169999999999945e+00 7.146840000000000082e+00 1.055649999999999977e+01 2.694920000000000204e+00 5.871850000000000236e+00 9.646089999999999165e+00 1.040750000000000064e+01 3.010790000000000077e+00 3.075969999999999871e+00 4.310010000000000119e+00 1.096710000000000029e+01 8.286920000000000286e+00 4.757950000000000124e+00 4.433950000000000280e+00 1.180349999999999966e+01 8.504229999999999734e+00 5.251030000000000086e+00 2.912110000000000198e+00 8.599589999999999179e+00 6.761930000000000440e+00 9.441729999999999734e+00 1.287349999999999994e+00 1.100520000000000032e+01 1.014509999999999934e+01 4.896950000000000358e+00 8.296569999999999112e+00 6.911389999999999922e+00 1.182060000000000066e+01 8.578219999999999956e+00 4.538090000000000401e+00 6.559319999999999595e+00 4.319849999999999746e+00 1.457060000000000022e+00 6.831660000000000288e+00 2.833860000000000046e+00 6.958809999999999718e+00 6.695540000000000269e+00 6.501920000000000144e+00 7.746859999999999857e+00 1.327239999999999975e+00 1.907750000000000057e+00 4.473250000000000171e+00 4.538339999999999819e+00 7.689079999999999693e+00 1.010510000000000019e+01 4.237280000000000157e+00 7.822059999999999569e-01 7.587399999999999700e+00 1.082699999999999996e+01 5.439339999999999620e+00 7.519449999999999967e+00 3.797239999999999949e+00 8.416109999999999758e+00 4.024339999999999584e+00 4.405969999999999942e+00 2.419350000000000112e+00 7.898049999999999571e+00 7.409620000000000317e+00 7.858979999999999855e-01 1.182269999999999932e+01 7.348239999999999661e+00 8.992330000000000823e+00 9.311949999999999505e+00 1.005659999999999954e+01 9.768629999999999924e+00 4.570100000000000051e+00 1.116080000000000005e+01 2.439979999999999816e+00 4.432120000000000282e+00 1.665909999999999891e-01 5.234569999999999723e+00 1.000730000000000075e+01 6.778710000000000235e+00 4.134970000000000034e+00 9.913560000000000150e-01 2.050310000000000077e+00 6.955869999999999997e+00 5.759079999999999755e-01 9.269450000000000855e+00 2.478499999999999925e+00 5.225959999999999717e+00 2.582100000000000062e+00 1.177089999999999925e+01
2.062720000000000109e+00 1.051060000000000016e+01 4.166960000000000441e+00 1.067179999999999929e+01 3.294010000000000105e+00 4.015480000000000160e-01 1.056039999999999957e+01 9.570280000000000342e+00 6.092109999999999914e+00 7.839809999999999945e+00 2.080700000000000216e+00 6.464640000000000164e+00 7.266700000000000159e+00 1.786759999999999904e+00 3.887649999999999828e+00 6.514420000000000321e+00 2.834579999999999878e-01 7.409999999999999920e-01 1.002120000000000033e+01 6.242700000000000138e+00 7.140930000000000000e+00 9.320230000000000459e+00 1.482129999999999947e+00 4.988749999999999574e+00 4.782589999999999897e+00 2.634300000000000086e+00 2.044329999999999981e+00 8.399929999999999453e+00 8.706070000000000420e+00 1.959119999999999973e+00 7.795739999999999892e-01 6.285779999999999923e+00 6.273150000000000226e+00 1.190000000000000036e+01 4.013880000000000337e+00 2.819859999999999811e+00 9.974420000000000286e+00 9.305350000000000676e+00 8.191039999999999210e+00 9.464069999999999538e+00 1.355490000000000084e+00 2.216979999999999951e+00 9.685070000000000068e-01 2.799009999999999998e+00 8.545780000000000598e+00 8.106899999999999551e+00 7.997020000000000017e+00 1.086090000000000089e+01 2.604400000000000048e+00 1.160720000000000063e+01 9.197169999999999845e+00 4.430109999999999992e+00 1.370430000000000037e+00 1.169599999999999973e+01 2.629790000000000183e-01 6.097949999999999759e-01 1.469789999999999930e+00 3.842270000000000074e+00 5.204910000000000370e-01 2.686650000000000205e+00 7.279609999999999914e+00 2.690129999999999910e+00 1.007399999999999984e+01 7.083289999999999864e+00 6.359460000000000335e+00 1.314109999999999889e+00 3.924920000000000186e+00 4.611519999999999619e+00 7.919369999999999798e+00 1.121770000000000067e+01 7.759339999999999904e+00 1.766219999999999901e+00 4.622989999999999711e+00 2.934890000000000221e+00 9.737259999999999138e+00 5.066040000000000099e+00 -2.987859999999999960e-01 7.685430000000000206e+00 4.003680000000000128e+00 9.373829999999999885e+00 3.648210000000000175e+00 2.464799999999999880e+00 5.347319999999999851e+00 9.978790000000000049e+00 5.198109999999999786e+00 7.481110000000000149e+00 7.338860000000000383e+00 1.799009999999999998e+00 8.416079999999999117e+00 1.394649999999999945e+00 9.447720000000000340e+00 2.066339999999999844e+00 1.054579999999999984e+01 2.012900000000000134e+00 4.080659999999999954e+00 1.533109999999999973e+00 2.648489999999999789e+00 1.125680000000000014e+01 1.483099999999999974e-01 9.902130000000000098e-01 5.894350000000000200e+00 2.357390000000000041e-01 6.549750000000000405e+00 1.037800000000000011e+01 3.904069999999999929e+00 1.173450000000000060e+01 2.735099999999999754e-01 9.821939999999999671e+00 1.010139999999999993e+01 5.685109999999999886e+00 1.056439999999999912e+01 7.669010000000000105e+00 2.919039999999999857e+00 1.380439999999999889e+00 1.181240000000000023e+01 1.022799999999999976e+01 2.859030000000000182e+00 3.246259999999999923e+00 2.144639999999999880e+00 7.863120000000000331e+00 9.148930000000000007e+00 4.634479999999999933e+00 5.369320000000000093e+00 3.513059999999999850e+00 9.700309999999999988e+00 8.008589999999999876e+00 8.972630000000000550e+00 1.174269999999999925e+01 7.084109999999999907e+00 3.581770000000000120e+00 5.308479999999999865e-01 5.408039999999999736e+00 4.856230000000000047e+00 5.526609999999999800e+00 2.503800000000000123e-02 6.193690000000000140e+00 4.023349999999999760e+00 6.184960000000000235e+00 2.836969999999999992e+00 6.737169999999999881e+00 3.111730000000000107e+00 9.703649999999999665e+00 5.381870000000000154e+00 2.331259999999999888e+00 3.293470000000000009e-01 8.957880000000000287e-01 4.976720000000000255e+00 1.013269999999999893e+00 3.663190000000000168e+00 5.996509999999999785e+00 1.882959999999999967e+00 2.708120000000000083e+00 1.147560000000000002e+01 9.474429999999999907e+00 1.129490000000000016e+01 1.154850000000000065e+01 6.013399999999999856e-01 8.411939999999999529e+00 7.857840000000000380e+00 3.346280000000000143e+00 3.822020000000000195e+00 4.461879999999999846e+00 1.112059999999999960e+01 8.438610000000000610e+00 1.055589999999999939e+01 7.668499999999999872e+00 5.456470000000000375e+00 7.854320000000000412e+00 3.311259999999999870e+00 6.806729999999999947e+00 5.654359999999999609e+00 5.940820000000000434e+00 9.159729999999999706e+00 6.744660000000000100e-01 7.300510000000000055e+00 9.139849999999999142e+00 7.834800000000000431e+00 4.649560000000000137e+00 6.839529999999999887e+00 9.465199999999999392e+00 8.662480000000000402e+00 8.028710000000000235e+00 4.745599999999999596e+00 1.037950000000000017e+01 3.426219999999999821e+00 7.598860000000000170e+00 6.787759999999999572e+00 1.129260000000000019e+01 9.830750000000000099e+00 6.224510000000000431e+00 6.394790000000000418e+00 4.476659999999999862e+00
3.248380000000000045e+00 5.045749999999999957e+00 2.624029999999999863e+00 1.504340000000000011e+00 7.877259999999999707e+00 2.348050000000000193e+00 2.251729999999999787e+00 6.132170000000000343e+00 4.718560000000000088e+00 2.288349999999999884e+00 5.096700000000000230e+00 1.163870000000000005e+01 6.221040000000000347e+00 9.336790000000000589e+00 1.272529999999999939e+00 5.275710000000000122e+00 5.689119999999999955e+00 7.406419999999999781e+00 8.979390000000000427e+00 4.519540000000000113e+00 9.040760000000000574e+00 4.581769999999999676e+00 1.222580000000000000e+00 3.930379999999999985e+00 3.617070000000000007e+00 6.143629999999999924e-01 7.456649999999999778e+00 5.938139999999999752e+00 3.658209999999999962e+00 3.758090000000000153e+00 8.205750000000000544e-01 1.304499999999999993e+00 3.356160000000000032e+00 5.458039999999999559e+00 8.528669999999999973e+00 1.057339999999999947e+01 1.096589999999999954e+01 6.016549999999999621e+00 8.612780000000000769e+00 9.802459999999999951e+00 2.859510000000000218e+00 7.409620000000000317e+00 8.928840000000000110e-01 9.156520000000000215e-01 6.879809999999999981e+00 3.711730000000000196e+00 5.198420000000000263e-01 1.069780000000000086e+01 1.105480000000000018e+01 1.066249999999999964e+01 9.792460000000000164e+00 7.940430000000000099e+00 4.228369999999999962e+00 1.922760000000000025e+00 9.128690000000000637e+00 7.134140000000000370e+00 1.188739999999999952e+01 4.612140000000000128e+00 6.606569999999999609e+00 9.733869999999999578e+00 1.372919999999999918e+00 2.041349999999999998e+00 1.169170000000000087e+01 8.423329999999999984e+00 1.046470000000000056e+01 9.669810000000000016e+00 1.073230000000000040e+01 3.124169999999999892e+00 1.447899999999999965e+00 2.599439999999999973e+00 3.247590000000000199e+00 1.351920000000000011e+00 1.669480000000000075e+00 8.897119999999999251e+00 8.783720000000000638e+00 4.156039999999999957e+00 8.004830000000000112e+00 7.704710000000000392e+00 7.699379999999999669e+00 1.203749999999999964e+01 6.368140000000000356e+00 1.146640000000000015e+01 5.346879999999999633e+00 1.201750000000000096e+00 4.450099999999999945e+00 9.325519999999999143e+00 2.978520000000000056e+00 8.973359999999999559e+00 3.577319999999999833e+00 4.136949999999999683e+00 2.503870000000000040e+00 4.877480000000000149e-01 4.918260000000000076e+00 1.051159999999999961e+01 8.441449999999999676e+00 2.591520000000000046e+00 1.311180000000000012e+00 1.077100000000000080e+01 1.497209999999999930e+00 1.110309999999999953e+01 1.079669999999999952e+01 7.128730000000000011e+00 2.176919999999999966e+00 5.732230000000000381e+00 8.349449999999999150e+00 3.619850000000000012e+00 1.212829999999999941e+01 1.720020000000000104e+00 9.380150000000000432e+00 6.775139999999999496e-01 4.277169999999999916e+00 3.566800000000000193e+00 3.392319999999999780e+00 5.393760000000000332e+00 1.162969999999999970e+01 4.079579999999999984e+00 1.035909999999999975e+01 6.407009999999999650e+00 2.313439999999999941e+00 6.460890000000000022e+00 5.639820000000000277e+00 2.205099999999999838e+00 7.923489999999999700e-01 2.922309999999999963e+00 8.714919999999999334e+00 1.129620000000000068e+01 3.728400000000000047e-01 3.785060000000000091e+00 7.068389999999999951e+00 3.100719999999999921e+00 3.031320000000000014e+00 8.870649999999999480e+00 1.985449999999999937e+00 9.896349999999999980e+00 5.262730000000000352e+00 2.130770000000000053e+00 1.135829999999999984e+01 9.040240000000000720e+00 6.756610000000000227e+00 2.871699999999999947e-02 2.340829999999999966e+00 5.010040000000000049e+00 6.734490000000000087e+00 1.454749999999999988e+00 5.864650000000000141e+00 9.759069999999999467e+00 6.066639999999999588e+00 4.597070000000000434e+00 7.118509999999999671e+00 5.031159999999999854e+00 9.150150000000000006e+00 1.294969999999999954e+00 3.675340000000000273e-01 7.180530000000000079e+00 8.285669999999999646e+00 3.895729999999999915e+00 6.752489999999999881e+00 5.406889999999999752e+00 1.142580000000000062e+01 1.122499999999999964e+01 4.537819999999999965e+00 3.937580000000000080e+00 9.139879999999999782e+00 7.748540000000000205e+00 6.191419999999999924e+00 6.484110000000000262e+00 3.241870000000000029e+00 9.521179999999999310e+00 5.689530000000000420e+00 1.102640000000000065e+01 8.884230000000000516e+00 7.514579999999999593e+00 7.708099999999999952e+00 8.973620000000000374e+00 4.725739999999999941e-01 7.208879999999999733e+00 6.240230000000000388e+00 8.959780000000000300e+00 1.029879999999999995e+01 7.819180000000000019e-01 9.025130000000000763e+00 1.175540000000000029e+00 9.017089999999999606e+00 1.136979999999999968e+01 7.741559999999999775e+00 4.439319999999999933e-01 8.056689999999999685e+00 4.911900000000000155e+00 6.670950000000000379e+00 9.979879999999999640e+00 1.000409999999999933e+01 4.417819999999999858e+00
6.865729999999999889e-01 1.341139999999999999e+00 1.168120000000000047e+01 1.440260000000000096e+00 4.339640000000000164e+00 4.729949999999999655e+00 2.768559999999999910e+00 1.493179999999999952e+00 7.860380000000000145e-01 3.421790000000000109e+00 4.029899999999999594e+00 1.156479999999999997e+01 8.622030000000000527e+00 2.814410000000000078e+00 8.078829999999999956e+00 7.724700000000000344e+00 1.037320000000000064e+01 5.845679999999999765e+00 2.604639999999999844e+00 5.679229999999999556e+00 7.322339999999999627e+00 5.514479999999999826e+00 8.517839999999999634e+00 4.381140000000000256e+00 9.217520000000000380e+00 7.025459999999999816e+00 7.745020000000000238e+00 3.928529999999999855e+00 8.511710000000000775e+00 6.922740000000000116e+00 1.108979999999999966e-01 3.339649999999999785e+00 8.868719999999999937e-01 3.252060000000000173e+00 6.037840000000000096e+00 2.014920000000000044e+00 9.868289999999999562e-01 1.132269999999999932e+01 2.975550000000000139e+00 8.347200000000000841e+00 2.240839999999999943e+00 1.149629999999999974e+01 1.024910000000000032e+01 9.070729999999999293e+00 1.342799999999999994e+00 1.059869999999999912e+01 4.130980000000000096e+00 7.360999999999999766e+00 3.415220000000000145e+00 1.183419999999999916e+01 1.089499999999999957e+01 8.624919999999999476e+00 1.411550000000000082e+00 4.484750000000000014e+00 4.168310000000000071e-01 8.402590000000000003e+00 2.756159999999999943e+00 1.011689999999999934e+01 9.412530000000000285e+00 6.729490000000000194e+00 1.013010000000000055e+01 5.447549999999999670e+00 5.377640000000000420e+00 5.975099999999999856e-01 1.366829999999999989e+00 2.106970000000000010e+00 1.093299999999999983e+01 7.308419999999999916e-01 6.567580000000000418e+00 4.572540000000000049e+00 4.424940000000000317e+00 8.506830000000000780e+00 5.467579999999999885e+00 1.184900000000000020e+01 1.193740000000000023e+00 2.145239999999999814e+00 1.166050000000000075e+01 5.382640000000000313e+00 1.089179999999999993e+01 7.041649999999999743e+00 5.184640000000000359e-01 4.466339999999999755e+00 1.496590000000000087e+00 7.913420000000000343e+00 5.316580000000000084e+00 6.506400000000000183e+00 6.143250000000000099e+00 8.324170000000000513e+00 7.174019999999999841e-01 6.945520000000000138e+00 8.215970000000000439e+00 9.753319999999999768e-01 1.986380000000000035e+00 6.115470000000000184e+00 6.579310000000000436e+00 1.119270000000000032e+01 5.035120000000000040e+00 1.194539999999999935e+01 5.380819999999999936e+00 1.145710000000000051e+01 5.646759999999999557e+00 9.089219999999999189e+00 9.610829999999999984e+00 1.179889999999999972e+01 5.452599999999999808e-02 5.222669999999999924e+00 5.288280000000000314e+00 3.908220000000000027e+00 6.119130000000000180e+00 1.004209999999999958e+01 7.838020000000000209e+00 1.038250000000000028e+01 1.019650000000000034e+01 4.410249999999999559e+00 7.909819999999999851e+00 6.781419999999999781e+00 1.156849999999999934e+00 1.028700000000000081e+01 2.534749999999999837e+00 3.152200000000000113e+00 3.077589999999999826e+00 2.212839999999999918e+00 3.304300000000000015e+00 1.504720000000000057e+00 6.142990000000000173e+00 1.144379999999999953e+01 6.040250000000000341e+00 3.323399999999999910e+00 6.767019999999999591e+00 8.958940000000000126e+00 4.658570000000000100e+00 9.909850000000000492e+00 1.375869999999999926e+00 8.655709999999999127e+00 5.890780000000000349e+00 1.098780000000000090e+00 8.275359999999999161e+00 8.649409999999999599e+00 9.811669999999999447e+00 4.945740000000000136e-01 9.086280000000000356e+00 9.335200000000000164e-01 1.163700000000000045e+01 8.478429999999999467e+00 6.928359999999999630e+00 6.965010000000000367e+00 8.692080000000000695e+00 1.388660000000000005e+00 2.959159999999999791e+00 7.303049999999999820e+00 6.384269999999999889e+00 2.528020000000000156e+00 3.554110000000000102e+00 3.587969999999999882e+00 8.477710000000000079e+00 7.815870000000000317e-01 9.966459999999999653e+00 8.714869999999999450e+00 1.068660000000000032e+01 9.359880000000000422e+00 4.623380000000000045e+00 1.102289999999999992e+00 2.870789999999999953e+00 6.798759999999999692e+00 4.685979999999999812e+00 3.560639999999999805e+00 6.789909999999999890e+00 9.535439999999999472e+00 5.883790000000000298e+00 4.346460000000000434e+00 5.337579999999999547e-01 1.237139999999999906e+00 1.039540000000000042e+01 1.172450000000000081e+01 1.169340000000000046e+01 5.862840000000000273e+00 2.999649999999999928e+00 8.096310000000000784e+00 7.135480000000000267e+00 4.345279999999999809e+00 3.949759999999999938e+00 1.030719999999999992e+01 3.135600000000000165e+00 6.591669999999999696e+00 9.213279999999999248e+00 1.130250000000000021e+01 5.829729999999999634e+00 1.432509999999999950e+00 1.014199999999999946e+01 7.363949999999999996e+00 9.220050000000000523e+00 2.179990000000000094e+00
8.295049999999999812e+00 3.775879999999999903e+00 1.063550000000000040e+01 4.093779999999999752e+00 1.493109999999999937e+00 1.476490000000000080e+00 1.032719999999999949e+01 1.163100000000000023e+01 3.125609999999999999e+00 1.047850000000000037e+01 6.549570000000000114e-01 1.061079999999999934e+01 1.005260000000000042e+00 1.167319999999999958e+01 5.455669999999999575e+00 4.505239999999999689e+00 1.063419999999999987e+01 1.147129999999999939e+01 1.146499999999999986e+01 7.754279999999999617e+00 1.700159999999999894e+00 8.785569999999999879e+00 5.940109999999999779e+00 1.075810000000000066e+01 2.666139999999999954e+00 7.250810000000000421e+00 1.200130000000000052e+01 8.869910000000000849e+00 1.124990000000000023e+01 6.535680000000000156e+00 8.472950000000000870e+00 4.806189999999999962e+00 5.163180000000000547e-01 4.297950000000000159e+00 4.016479999999999606e+00 6.582099999999999618e+00 9.547219999999999374e+00 5.050959999999999894e+00 4.565529999999999866e+00 8.028050000000000352e+00 2.758849999999999802e+00 3.731320000000000192e+00 7.819009999999999572e+00 1.013400000000000034e+01 8.500550000000000495e+00 1.130219999999999914e+01 1.042639999999999922e+01 9.370779999999999887e+00 6.026570000000000427e+00 3.834350000000000147e+00 1.671900000000000122e-02 6.239539999999999864e+00 1.055410000000000004e+01 6.346490000000000187e+00 3.041440000000000143e+00 5.388709999999999667e+00 2.865400000000000169e+00 2.543089999999999851e+00 1.500229999999999952e+00 4.233690000000000175e+00 6.922439999999999927e+00 7.877259999999999707e+00 6.285949999999999704e+00 6.940730000000000288e+00 4.303060000000000329e+00 6.799070000000000391e+00 9.181570000000000675e+00 8.113250000000000739e+00 5.766219999999999679e+00 2.643470000000000208e+00 1.209389999999999965e+01 9.230689999999999173e+00 2.076270000000000060e+00 -1.411640000000000117e-01 2.364599999999999813e+00 1.083510000000000062e+01 7.220659999999999634e+00 1.061239999999999917e+01 6.833230000000000359e+00 1.133459999999999912e+00 2.017840000000000078e+00 2.183959999999999901e+00 5.640539999999999665e+00 5.687579999999999636e+00 8.766659999999999897e+00 1.833309999999999995e+00 1.949819999999999887e-01 1.045490000000000030e+00 6.640450000000000408e+00 9.841210000000000235e+00 2.663800000000000168e+00 4.145229999999999748e+00 8.456070000000000420e+00 4.462609999999999744e+00 5.295069999999999943e+00 1.049239999999999995e+01 5.121579999999999799e+00 3.585980000000000167e+00 3.630780000000000118e+00 8.969689999999999941e+00 8.663510000000000488e+00 3.028709999999999791e+00 9.284390000000000143e+00 6.364950000000000330e+00 1.880139999999999922e+00 5.345469999999999722e+00 8.813159999999999883e+00 7.614950000000000330e-01 6.475939999999999586e+00 6.733929999999999971e+00 9.955249999999999488e+00 1.072639999999999993e+01 9.084790000000000365e-01 5.447820000000000107e+00 1.118379999999999974e+01 3.168099999999999916e+00 1.118130000000000024e+01 3.692349999999999799e+00 7.966450000000000031e+00 4.185740000000000016e+00 7.448610000000000397e+00 1.113579999999999970e+01 3.736190000000000122e+00 1.268540000000000001e+00 9.751360000000000028e+00 7.199060000000000237e+00 8.875040000000000262e+00 1.358980000000000077e+00 8.041919999999999291e+00 6.469449999999999923e-01 3.575750000000000206e+00 5.272000000000000242e+00 1.174179999999999957e+01 6.415779999999999816e+00 4.178619999999999557e+00 4.899890000000000079e+00 1.047109999999999985e+01 8.787319999999999354e+00 9.754619999999999180e+00 1.141089999999999982e+01 7.657699999999999507e-01 6.667869999999999742e+00 1.716299999999999937e+00 6.006969999999999921e+00 9.492470000000000852e+00 4.832480000000000331e+00 7.497539999999999871e+00 1.490990000000000038e+00 4.798610000000000042e+00 2.417100000000000151e-02 2.066940000000000222e+00 1.179149999999999920e+00 1.173889999999999922e+01 9.408099999999999241e+00 8.096000000000000085e+00 8.458349999999999369e+00 6.199090000000000433e-01 9.703979999999999606e+00 3.924090000000000078e+00 4.598959999999999937e+00 1.118539999999999957e+01 2.651879999999999793e+00 1.118500000000000050e+01 2.747640000000000082e+00 2.878509999999999902e+00 5.052130000000000010e+00 2.570790000000000131e+00 9.820619999999999905e+00 3.583270000000000177e+00 7.024930000000000341e+00 8.266730000000000800e+00 7.889960000000000306e+00 9.353369999999999962e+00 1.164269999999999960e+01 5.783399999999999652e-01 7.149000000000000021e+00 7.009789999999999743e+00 8.810679999999999623e-01 9.282819999999999183e+00 1.201079999999999970e+01 7.180440000000000156e-01 2.401320000000000121e+00 8.648410000000000153e+00 5.491240000000000343e+00 6.252740000000000187e+00 2.036999999999999922e+00 6.596440000000000303e+00 1.240450000000000053e+01 1.100259999999999927e+01 3.387700000000000156e+00 8.339830000000000298e-01 6.371249999999999858e+00
6.851140000000000008e-01 1.336899999999999977e+00 1.169120000000000026e+01 1.409000000000000030e+00 4.395550000000000068e+00 4.741830000000000211e+00 2.768600000000000172e+00 1.513109999999999955e+00 8.289020000000000277e-01 3.461240000000000094e+00 4.061560000000000059e+00 1.158580000000000076e+01 8.589560000000000528e+00 2.815020000000000078e+00 8.036419999999999675e+00 7.711549999999999905e+00 1.033670000000000044e+01 5.799890000000000434e+00 2.658259999999999845e+00 5.646419999999999995e+00 7.295580000000000176e+00 5.530929999999999680e+00 8.486110000000000042e+00 4.343060000000000365e+00 9.257289999999999353e+00 6.950660000000000061e+00 7.786340000000000039e+00 3.947529999999999983e+00 8.513849999999999696e+00 6.928889999999999993e+00 7.644900000000000306e-02 3.397269999999999790e+00 8.400859999999999994e-01 3.250960000000000072e+00 6.015360000000000262e+00 1.973000000000000087e+00 9.966699999999999449e-01 1.126720000000000077e+01 2.970740000000000158e+00 8.356659999999999755e+00 2.236250000000000071e+00 1.154560000000000031e+01 1.024869999999999948e+01 9.064370000000000260e+00 1.318680000000000074e+00 1.064530000000000065e+01 4.104969999999999786e+00 7.441930000000000156e+00 3.407369999999999788e+00 1.181939999999999991e+01 1.090740000000000087e+01 8.608290000000000219e+00 1.386640000000000095e+00 4.487829999999999764e+00 4.113519999999999954e-01 8.367929999999999424e+00 2.729089999999999794e+00 1.008329999999999949e+01 9.449899999999999523e+00 6.723860000000000170e+00 1.015910000000000046e+01 5.455960000000000143e+00 5.370400000000000063e+00 5.812770000000000437e-01 1.314799999999999969e+00 2.083099999999999952e+00 1.093779999999999930e+01 7.689139999999999864e-01 6.551759999999999806e+00 4.571860000000000035e+00 4.411690000000000111e+00 8.456680000000000419e+00 5.493420000000000414e+00 1.186359999999999992e+01 1.235060000000000047e+00 2.134879999999999889e+00 1.165920000000000023e+01 5.365300000000000402e+00 1.091499999999999915e+01 7.044870000000000410e+00 5.360800000000000010e-01 4.445339999999999847e+00 1.461899999999999977e+00 7.905780000000000030e+00 5.297719999999999985e+00 6.495199999999999640e+00 6.154080000000000439e+00 8.280910000000000437e+00 7.032789999999999875e-01 6.934099999999999930e+00 8.158160000000000522e+00 9.771159999999999846e-01 1.966509999999999980e+00 6.118100000000000094e+00 6.584319999999999951e+00 1.119960000000000022e+01 5.027120000000000033e+00 1.194009999999999927e+01 5.339529999999999887e+00 1.146209999999999951e+01 5.646620000000000417e+00 9.082150000000000389e+00 9.617110000000000269e+00 1.178279999999999994e+01 4.406399999999999900e-02 5.211879999999999846e+00 5.314390000000000391e+00 3.921990000000000087e+00 6.110289999999999999e+00 1.004630000000000045e+01 7.878180000000000405e+00 1.037729999999999997e+01 1.016559999999999953e+01 4.435940000000000438e+00 7.937070000000000292e+00 6.801249999999999574e+00 1.171720000000000095e+00 1.031049999999999933e+01 2.569809999999999928e+00 3.138180000000000192e+00 3.071110000000000007e+00 2.222659999999999858e+00 3.293960000000000221e+00 1.500520000000000076e+00 6.139840000000000408e+00 1.143880000000000052e+01 6.004010000000000069e+00 3.305919999999999970e+00 6.751000000000000334e+00 8.942809999999999704e+00 4.625580000000000247e+00 9.927419999999999689e+00 1.390269999999999895e+00 8.648649999999999949e+00 5.900100000000000122e+00 1.097960000000000047e+00 8.274240000000000705e+00 8.649850000000000705e+00 9.774210000000000065e+00 5.087399999999999700e-01 9.110329999999999373e+00 9.426989999999999537e-01 1.163369999999999926e+01 8.451869999999999550e+00 6.944440000000000168e+00 6.997659999999999769e+00 8.674580000000000624e+00 1.385769999999999946e+00 2.974549999999999805e+00 7.323909999999999698e+00 6.413240000000000052e+00 2.512929999999999886e+00 3.543550000000000200e+00 3.633340000000000014e+00 8.498319999999999652e+00 7.963850000000000096e-01 9.979119999999999990e+00 8.694000000000000838e+00 1.070190000000000019e+01 9.326370000000000715e+00 4.616319999999999979e+00 1.102100000000000080e+00 2.866909999999999847e+00 6.789390000000000036e+00 4.655070000000000263e+00 3.571070000000000189e+00 6.812529999999999752e+00 9.537770000000000081e+00 5.852610000000000312e+00 4.346440000000000303e+00 5.541059999999999874e-01 1.247349999999999959e+00 1.036730000000000018e+01 1.170459999999999923e+01 1.169030000000000058e+01 5.886330000000000062e+00 3.018260000000000165e+00 8.096809999999999619e+00 7.147000000000000242e+00 4.387209999999999610e+00 3.933609999999999829e+00 1.033699999999999974e+01 3.125700000000000145e+00 6.608559999999999768e+00 9.220039999999999125e+00 1.130230000000000068e+01 5.822390000000000398e+00 1.452220000000000066e+00 1.015530000000000044e+01 7.384490000000000443e+00 9.251289999999999125e+00 2.164099999999999913e+00