-1.048982753268439774e+04
-1.048868385429809132e+04
-1.049355610660170714e+04
-1.049381890690735599e+04
-1.049683365157950902e+04
-1.049396758719070749e+04
-1.049450579444553296e+04
-1.050041842567668027e+04
-1.049447161687460175e+04
-1.049904607273128750e+04
-1.050153319971297606e+04
-1.049854412432723075e+04
-1.049491017011045915e+04
-1.049295180998576325e+04
-1.049921172933592788e+04
-1.049615903835356039e+04
-1.049541447519125541e+04
-1.049835797114722482e+04
-1.049832651427876772e+04
-1.050165102858032333e+04
-1.049751052497904493e+04
-1.050245041451991165e+04
-1.049740638581595340e+04
-1.048718529131309697e+04
-1.050252712625226195e+04
-1.049794981191139595e+04
-1.049273295875831900e+04
-1.050037866708675574e+04
-1.049566278780892753e+04
-1.049360825526497320e+04
-1.049443319143078224e+04
-1.049422091362104038e+04
-1.049150914827292036e+04
-1.049593712498489367e+04
-1.050272001955165979e+04
-1.049639213306593410e+04
-1.049314310032449430e+04
-1.049298811677335652e+04
-1.049069101701994805e+04
-1.048785790729876317e+04
-1.049201854232837650e+04
-1.050155849186471096e+04
-1.049243997578651033e+04
-1.049349537516213604e+04
-1.049430699765042482e+04
-1.049352610342512889e+04
-1.048717506502983633e+04
-1.049825722510845299e+04
-1.050245537668735233e+04
-1.049425932541335351e+04
-1.049455158143289918e+04
-1.049394163181366639e+04
-1.048820568884667227e+04
-1.049286648134242569e+04
-1.049664464610614050e+04
-1.049625592675879125e+04
-1.050260154787059037e+04
-1.049638325534258183e+04
-1.049465960462079966e+04
-1.049356923629131779e+04
-1.049546843184737008e+04
-1.049024065292114938e+04
-1.049484238511304102e+04
-1.049528615618338154e+04
-1.049421182054538258e+04
-1.049746545939137832e+04
-1.049419890579502498e+04
-1.049239036818161730e+04
-1.049683412406601383e+04
-1.049065759196588442e+04
-1.049193771784973433e+04
-1.049161444707480950e+04
-1.049577945931328577e+04
-1.050247078411004077e+04
-1.050271442682227826e+04
-1.049509351378869906e+04
-1.049586283545523293e+04
-1.049359628271491965e+04
-1.049335825460871638e+04
-1.049386035341449497e+04
-1.049213060686996505e+04
-1.049552432384272652e+04
-1.049264471048870473e+04
-1.049594646997299606e+04
-1.049560477221499787e+04
-1.049593374751159536e+04
-1.049563334430116993e+04
-1.049364407015217330e+04
-1.049488340653216801e+04
-1.049329072803874078e+04
-1.049240228359134380e+04
-1.049411496409225401e+04
-1.049458704062955803e+04
-1.049360263581752042e+04
-1.049579910471789481e+04
-1.049702850412225962e+04
-1.049456483623334498e+04
-1.049880568350926296e+04
-1.050056199224388547e+04
-1.049849370165873006e+04
-1.049306059995317082e+04
-1.049380293833042379e+04
-1.049581363948849321e+04
-1.049411585755543274e+04
-1.049374765193104940e+04
-1.049539991077073137e+04
-1.049591635801419216e+04
-1.049623735631018462e+04
-1.049903936858016823e+04
-1.049347540385859065e+04
-1.049765339343705637e+04
-1.049591462862714798e+04
-1.049521182578683693e+04
-1.049341564943559388e+04
-1.049832967119974637e+04
-1.049565735250578473e+04
-1.049559880990961028e+04
-1.049545199935790333e+04
-1.048956635149729118e+04
-1.049452770508041795e+04
-1.049257207706902409e+04
-1.049901723761714311e+04
-1.049521444165052890e+04
-1.049019895814635856e+04
-1.049519785337131907e+04
-1.050267513017970487e+04
-1.049406005691633436e+04
-1.050038893104959425e+04
-1.049091031608375124e+04
-1.049554581749811041e+04
-1.049356419668890339e+04
-1.049582733262228066e+04
-1.049717157253688492e+04
-1.049357927870124513e+04
-1.049322702711048987e+04
-1.048886504418542063e+04
-1.049807932750026339e+04
-1.049629145943784170e+04
-1.049621447373418960e+04
-1.049286085466510303e+04
-1.049909576572180413e+04
-1.049556990191451587e+04
-1.049546301702710298e+04
-1.049818682095404984e+04
-1.049389017655427233e+04
-1.049358361155394596e+04
-1.049192844028934451e+04
-1.049468928678157681e+04
-1.050042720199672840e+04
-1.049746794502106786e+04
-1.049450011858301696e+04
-1.049462035003637538e+04
-1.049339686124265063e+04
-1.049544826322598783e+04
-1.049157287588649706e+04
-1.049678837326359462e+04
-1.049710351178136079e+04
-1.049579895588713953e+04
-1.049534613637451002e+04
-1.049413299536359591e+04
-1.049304990924682352e+04
-1.048898664131100486e+04
-1.049232254462278615e+04
-1.049783188949162468e+04
-1.049860411556128020e+04
-1.049589783929145779e+04
-1.049415552676022890e+04
-1.049684504902300796e+04
-1.049691156979091647e+04
-1.049559988401704686e+04
-1.049182452101713534e+04
-1.049748752964879895e+04
-1.049411059570737598e+04
-1.049714290638068996e+04
-1.049384684203331381e+04
-1.050222527759681361e+04
-1.049537202903374055e+04
-1.049550192165243061e+04
-1.049478715539018594e+04
-1.049812281690939017e+04
-1.049382340187165573e+04
-1.049883578317089996e+04
-1.049449478161189836e+04
-1.049451259121228941e+04
-1.049444756272129780e+04
-1.049347293175618870e+04
-1.049197408172231189e+04
-1.050247338789290734e+04
-1.049697294762171077e+04
-1.049065632835105134e+04
-1.049215938162196107e+04
