-1.083095717791910051e+00 -7.473656952380509644e-01 -6.963421530420234040e-01 -1.092917331860382202e+00 4.573082349851136374e-01 1.034969294635766035e+00 -8.844435459547440592e-01 1.722770757203273551e+00 -1.769441935971261870e+00 -1.899242536305912443e+00 -2.582512172444863197e+00 -1.197161166791731235e+00 -7.423525582980753379e-01 -2.715131216062722230e-01 -9.273891962449275495e-01 -1.940128732965508140e-01 4.430555817319284384e-01 1.194721189893569013e+00 -7.020741704253351534e-01 -6.329027536898042261e-02 1.222624344040034838e+00 8.274082503516742015e-01 2.491275548396340855e-01 -6.178720846206192663e-01 -1.404736609253514956e+00 1.938747022127707886e+00 9.116149641420767669e-01 -2.127726703879640469e-01 1.099681390051831187e+00 2.550750306676941026e-01 -1.040430317746088962e+00 2.830224077884994083e-01 8.285781022891494096e-01 2.129989274659811749e-01 3.784663850468767549e-02 -3.431901812146536113e+00 2.918392347423224287e-01 -3.273322854149998684e-02 -2.759313052751890538e-01 1.445820780856375443e+00 -3.073105908930091057e-01 1.028804303480430393e+00 4.442783983944847415e-01 7.772336864188428285e-01 -1.234503354856567148e+00 -2.477869816523824431e-01 1.327892506470043088e-01 -7.452599617505958549e-03 -6.532406939003871926e-01 -3.268152879917306297e+00 -1.678249534897079842e+00 -9.216972880709005667e-01 1.705596816540507987e+00 3.333144197136471032e+00 -2.258421019672458563e-01 -1.472115967087023636e+00 2.894517083486096154e-01 1.362713470776883540e+00 -7.797019454517573056e-01 1.045280960966397776e+00 1.577198495868931793e+00 -1.284173468349546765e-01 -1.284471716316024081e-01 1.586877670822379294e+00 -1.309755944784440629e-01 -7.480712059449590168e-01 -5.424073272600411499e+00 9.397217496587579877e-01 -1.274537487929175095e+00 -2.572548119261366395e-01 -5.977598872674215746e-01 8.988550933831731538e-01 -5.018407701452082259e-01 -2.449885929738157553e-01 -7.206524476337028418e-01 -4.634742545817129300e-01 -8.530997415605221512e-01 2.843820071391297555e-01 4.099932519860398361e-02 -1.396705511425169743e-01 1.168340128817400903e+00 3.984181455629349188e-03 3.989945868912468940e-01 -7.259406926117219216e-02 -4.495794988883003440e-01 6.707015696757292478e-01 4.191612916314213511e-01 3.895103015572732308e-01 -2.791971205081139606e-01 -1.898908807115837483e-01 -2.666150672437063385e+00 -2.056394017828413745e-01 1.072708975249027308e+00 -2.935742151542085621e-01 2.527327556895846983e-01 -9.448547000059562273e-02 6.313395229689584554e-01 -1.296864433543781607e-03 -1.627724786713953709e+00 2.752257945682810014e-01 2.733848847062323451e-01 1.770759883450712113e-01 -1.261503023352859687e+00 5.712703256379314531e-01 9.899595627293077404e-01 -3.170684416031307497e-03 7.427078847546887408e-01 -2.385635090228867661e+00 1.384353931847960517e+00 -2.772718784624406685e-01 1.217674456237777397e-01 -1.925529495006451208e+00 1.240690971719704327e+00 -2.518854229324104743e+00 -4.735154408599879239e-01 3.492303710226374314e-01 -1.685687222116261930e-01 -1.495255895520596345e-01 -7.376782927544937030e-01 -1.727619857761686584e+00 -1.835232866272964003e+00 -3.203186245288472289e+00 -4.079044877794361090e-01 1.177347217405010804e+00 1.699423083634430398e+00 1.761531165770771290e+00 -1.976047044100731342e-01 -8.754673106050453457e-01 -2.937701332149461053e-01 2.089928916334979458e+00 -3.032127152556761462e+00 -2.876377436476702520e+00 -9.437491256474634174e-03 6.248737127439865091e-01 -1.172167987200945394e+00 1.148309178324036450e+00 -1.910926143282339229e+00 -9.652240076750823183e-01 -1.409468467507864753e-01 -1.069254441044210857e+00 1.988805886418371527e+00 8.724339230977199433e-01 -2.259028314238682000e+00 1.787137810575363028e+00 -1.440645664417364857e-01 -1.990215879390923703e+00 2.772713642418088154e-01 -1.076034954295879364e+00 -2.128209557052954448e+00 3.123649683276595646e+00 -6.400581337820968608e-01 -1.896584529859842994e-01 -3.909172092060345105e-01 5.645165004370561235e+00 4.902345019518127955e+00 2.089001776535741151e+00 2.423009159972878468e+00 2.492103957834262751e+00 1.016856901319860729e+00 2.806220258789901556e-01 9.620702925399023941e-01 -1.313106092200990282e+00 8.222860986377449333e-01 -4.131814199035543228e-02 2.751286068688599956e-02 8.818513597495520884e-01 -7.053564407184794577e-03 -1.343892995650910915e+00 3.002400572049730432e-01 3.090003198892917746e-01 8.343240036295214157e-01 1.065291342634487659e+00 -5.373502758781051325e-01 -1.370027745044419820e-01 -1.087878998109445661e+00 1.195874072550192846e+00 -1.279317168702287510e+00 -2.171872545124578502e-01 1.282651375279249550e-01 -1.845753820400761469e-01 -2.437323519701886654e-01 -1.733468603228430216e-01 2.277367993073867947e+00 3.075850304442312666e+00 1.367369224377718295e-01 1.778099868749841050e+00 1.511782946628486002e-01 3.603254010638405003e+00 -1.107994795007066324e+00 3.580009181195933365e-01 1.972092687441749648e-01 1.727676936251822726e+00
-3.150182439439161985e-01 2.906303020368262713e-01 1.144099254011021749e+00 3.260709022050541916e-01 1.745557930283392067e-01 3.577638624083071678e-02 1.472920722375880009e+00 3.857960859333688930e-01 -3.841619956094532107e+00 -2.908504398893243081e+00 1.024302816069152744e+00 3.397340015038150973e+00 -2.312512916378778094e+00 -5.769488640755301434e-01 -7.736079167436179516e-01 5.077558500734611346e-01 -7.703127909346771940e-01 1.210701624469794485e-01 1.682280510430207876e+00 1.658557970020741568e+00 5.748816971354642202e-01 4.927979432236839763e+00 -8.856843603394154441e-01 -3.032286046732004969e+00 -3.191150397179223080e-02 1.252055247683748096e+00 -3.144891109137352148e-01 5.686508857392509608e-02 4.014078243165525306e-01 -2.709469646905974805e-01 -1.002030377841522935e+00 7.519931667041337420e-01 -3.394529799285052052e-01 -9.072070648857973874e-01 -1.021626297680336082e+00 1.258180643850430380e+00 -9.176262033284873221e-01 -5.041501350028787520e-01 3.348130129010684186e+00 1.387507132762508810e+00 -1.304564373285211021e+00 2.882108939639382306e-01 -1.799621544854959287e+00 2.628166222803037799e-01 2.076587976262076918e+00 -1.169111459765186378e-01 -2.796984856241746531e-01 2.786679874779328658e-01 -1.211828796094825300e+00 1.108233907600879808e+00 2.060342718060445222e+00 3.057303908913120427e-01 5.158615098934258292e-01 7.625532015999524071e-02 2.055051901979267071e-01 9.740120382735213411e-01 -7.735621511073826895e-01 -2.644842397894165975e-01 -1.527835886313802849e+00 1.721127308063857830e-01 -1.840385357004172606e+00 2.338444034402071547e-01 -5.253833333335249378e-01 4.291325439037637496e-02 4.294091946037028595e-01 3.846987391049857402e-02 4.193150436003466042e-01 1.769957185044383152e+00 -7.494904548888847717e-01 -8.800973531742871669e-01 1.213355002930177444e-02 -5.332735347087413924e-01 1.904021702858392784e+00 1.061704139506651989e+00 2.225363832132888575e+00 2.684301118079726045e+00 2.059788388219303101e+00 -6.756787111714748217e-01 1.669993722652612922e+00 -1.049865237899404447e+00 -6.772141739782002734e-01 -7.271511679791137217e-01 -6.817917660429928528e-01 -1.321634441380341585e-01 2.437337917879578431e+00 1.201645170701526100e+00 -3.980990716608676205e+00 3.184465528965080283e-02 5.348429360771694840e-01 -8.002841404624723154e-01 1.783925988508783034e+00 -3.503364596017622401e-01 -1.457985184123588573e-01 2.594049740761842138e+00 -6.678368465356530059e-01 1.933397584894497534e+00 -1.217957277585298981e-01 -1.199302895723416418e+00 5.792181197239158578e-03 -6.985275907274162144e-01 2.120666454604241746e+00 -1.329794608587282934e+00 1.002977058024772106e-01 7.448275021992040168e-01 1.797982723701230523e-01 4.188244771175549386e-01 2.398690123630457527e-01 -9.740279791131090104e-01 -5.382439913362727646e-01 -4.070868769747831295e-01 -5.400293653700809215e-02 -1.069611824383351673e+00 1.453214245101217772e+00 -1.274739062416863078e+00 -1.965239154860356940e+00 -9.439707547397938603e-01 -1.491162699291013194e-01 8.780486981769682897e-01 -2.774760754753511804e+00 -1.638372239117187990e+00 5.594293671481563868e-01 -6.214921978688937587e-01 -3.999383360168943469e+00 -1.367394421188679043e+00 -3.197697454264028405e+00 -6.289905631226350158e-01 4.799750804373776880e-01 -1.200554508741356941e+00 1.028294710834259940e+00 9.454002880963566779e-01 4.527198442870520867e-01 -7.560411115181132624e-01 -1.970334052880798048e-01 -1.092364544681135863e+00 8.662756168105985033e-01 -3.015940001286529615e+00 -8.905010649980216186e-01 -1.039916611334863683e+00 -2.168350133796356771e-01 -3.561918899367197966e-01 -3.023540182225378015e+00 -1.191197235903451862e-01 6.722951394138545478e-01 1.723847535206382287e-01 -6.517571673774793517e-01 8.440828827809067347e-02 -4.768882139843390322e-02 -9.108714011084114714e-01 -8.853542306937631223e-02 -9.119708048193220229e-01 -9.101895445505688853e-01 -5.949836100760248492e-01 -1.462128259754461812e+00 -5.193057596856051061e-01 -3.607314296747548554e-01 1.485115464660373030e+00 1.329062872628150149e+00 -1.795622451001006037e-01 -2.395275698634925787e-01 1.169244642908837228e+00 -7.344654422466501131e-01 -7.591696298423322720e-01 -4.473945754235392758e-01 1.287963274406334069e-01 1.451748716300425013e+00 -9.900048141449111494e-01 1.355110718734875208e+00 3.668357942175945574e+00 -3.035716926787755954e-01 4.371718692622186819e-01 2.326132564034146810e+00 -2.323979008027929061e-01 -3.047518290288878107e-01 -4.305847029681283966e-01 -7.002358316664458737e-01 -5.994084786131557152e-01 -4.832748342320050683e-02 -2.687661549908912928e-01 1.202916324103476924e-02 4.718482347273805999e+00 5.077337385862913388e-01 3.562839354298221739e-01 3.044124434118620770e-01 -1.514631728928974297e-01 -6.392585206995589076e-01 1.526963253901541195e+00 -2.103872008767786461e-01 1.162474928290437859e+00 8.754693674875726472e-01 1.354508566374970462e-02 4.821481768276060786e-01 -1.304341715751616837e+00
5.235928170933983328e-01 7.085487224010488250e-01 1.259764443396550471e+00 8.615576425133087968e-01 3.809567555669610694e-01 1.147309533415706184e+00 -3.100153914165778568e-01 -1.075146381044030264e+00 -7.057148524988839933e-01 -4.247698960630875709e-01 1.374689155072204905e+00 -1.167609421299531602e+00 1.090354970451838046e+00 5.663476915291627556e-01 -6.702104889723056180e-01 2.750396466995487232e-01 -1.252079416053445193e+00 -2.700213675532546209e-01 -7.486306779924196686e-01 1.068180234144261165e-01 1.645338900237588886e+00 1.779565911771266107e+00 1.928862158921517411e-01 3.793431312241932751e-01 1.532969350881632886e+00 1.010756187743507173e+00 -1.121853555256248747e+00 -4.613500091515109758e-01 1.176176851246903826e-02 3.008190696364442017e-04 -9.391787326715166362e-01 3.474753360061089147e-01 -9.556101387418806103e-01 1.433303108015076210e+00 2.947620133917353780e+00 8.368123172670780541e-01 2.180727424405159154e-01 1.451826877836467355e+00 -1.957195715736847474e-01 1.545675228474191754e-01 -2.362036476991678235e-01 -1.858079688946377761e+00 -4.241703148063420969e-01 7.636520910902312442e-01 -8.610624480448303419e-03 1.010975245732678385e+00 1.140077020228635218e+00 2.629888861919759679e-01 1.950315443682598404e-01 -1.366381920764552227e-01 3.014150513487666716e-01 3.466217297572260492e-01 -4.748827535200961236e-02 -6.037932379410018147e-01 -4.159602681981104944e+00 -7.185744820603680028e-01 -3.489089831277267240e-01 -8.986334642908426762e-01 -2.661518572985293929e+00 7.050427661330464779e-02 -1.579656470489209097e+00 -1.821686237947318432e+00 -1.651056519443208970e+00 -2.721528120723025745e-01 -6.692108440639753519e-01 8.771575538219598955e-02 -4.294436473860373527e-01 -1.744149479972735284e+00 1.545520962284634703e-01 1.433238316215462271e+00 -1.094241964208046314e+00 1.857436913156556457e+00 -3.922634388202365097e-01 -1.937990089357613854e+00 -1.016135963993997082e-01 -9.124778263623332109e-01 1.562705701580669349e+00 -5.563209034285797605e-01 5.251745597569910107e-01 -5.801714847753789428e-01 4.823641494929860607e-01 7.471713198392089250e-01 -2.629981421633494354e-01 3.805129831616683306e-02 -1.152661027531443727e+00 1.696218460656696569e-01 9.616445178567246677e-01 -1.365298972113861309e+00 -9.486758735212866833e-01 6.631533250206979035e-01 -3.492571104954939609e-01 -1.017974302752886473e+00 1.010084101377669796e+00 -6.445256826316718701e-01 -1.010478508602304482e+00 1.585312383219006138e+00 -2.210578960525731329e+00 -1.896132015703808349e-01 2.634959077349871004e-01 -4.677587408863468910e-01 -2.886495241629123965e-01 2.698269921544126093e-02 8.473888072231162694e-01 1.679966517586850783e+00 3.552539515042122953e-01 4.176865068592549579e-01 -7.315868351495136146e-01 -2.319896096210983250e-01 3.421711501885021933e-01 1.689134043011600417e+00 -2.368217408986601491e-01 -9.411991055340835910e-01 1.540463602370319318e+00 -2.511813520432715913e-02 2.043877887649010738e-01 -5.059951586299822335e-01 8.470324523252394933e-01 -4.585541915761035536e-01 -3.408105223966081399e-01 -2.437971437698026878e-01 2.162292614753079101e-01 9.871313492540934043e-01 -1.345288590445771482e-01 -1.098774304857235373e+00 2.159114731248202301e-01 4.163644456147502781e-03 2.538820388017855034e-01 -7.389797851737243128e-01 -9.513770745004326290e-01 9.643796573975728093e-01 -1.370349132939330472e+00 6.427043131536338549e-01 3.064811530138235041e-01 -9.803976300799238652e-02 -4.132924915600354465e-01 -1.560325374275802313e+00 4.572012770936873527e-01 7.833827367345909121e-01 1.883492472572759202e-01 -3.193130146611872777e-01 5.827487585822471727e-01 -3.054552828532684505e-01 -1.545335842857165770e-02 7.226507090090997787e-01 8.236631814898585924e-02 1.042881607498152396e+00 1.988938555341390468e-01 1.886541800919672163e-01 -5.315565520189703408e-01 -1.156579902966827222e-01 -1.105301821558030279e-01 2.784905813599422020e-01 -5.908292215912506334e-02 6.784297915519106326e-01 1.337672982887966600e-01 -1.071483587483311739e+00 2.537169739789593148e-01 -6.577082427499623130e-01 -2.808565104871170170e-01 1.717896974054531123e+00 7.785902004456820569e-01 6.856463638993942622e-01 4.386456255931213410e-02 -4.854361035477008368e-01 7.427824467463081115e-01 -4.127273630856244657e-01 -2.377221412250420662e-01 -3.970971127596938932e-01 1.203008883817211078e-01 1.380425286220571778e-02 8.430055905571659514e-01 1.360182991047514278e+00 2.046315293444013472e-01 -1.245750902737178950e-01 -1.144511144737139441e+00 7.306252425679408136e-01 2.035938321093135883e-01 -1.392853998892559231e-01 -6.997365234329124828e-01 -5.549237659718239124e-01 -1.484482973283188789e-01 -1.855193882760395319e+00 1.307646097531931062e+00 4.857906072513031859e+00 1.807965803048105613e+00 -4.721030310504658267e+00 -5.936538355220420948e-01 1.402746061187595927e+00 -1.965829480145729447e+00 -1.155731438924263027e-01 5.825996345990085423e-01 7.879721558739160026e-01
-1.198104247430557434e+00 -1.065467720311214617e+00 -2.610334079731495560e+00 1.221500257738794698e-01 -7.289308855859714109e-01 1.456267687213185502e-01 2.655164862858066410e+00 5.576527348650898164e-01 -9.261252419318224405e-01 -1.244228809666881874e-01 -8.204292479361087187e-01 -2.434500448432990738e-01 -7.802187371867737031e-01 5.225134679871300536e-01 -5.397054063720108097e-02 5.040339211400789859e-02 -2.673222234566363653e-01 -9.524281414719486527e-01 -3.301831245980160201e-01 -8.915423617775323217e-01 -1.051354935069894470e-01 7.727409407583066825e-01 1.176711640704035250e-01 3.057221633612023370e-01 2.008547844916631853e+00 1.618365456993521023e-01 -1.375699598613804087e+00 8.614254878109215419e-01 6.847829874585059651e-01 6.555752555690187444e-01 3.357382500839689587e-01 2.408800729694033027e+00 -9.960947290879956784e-01 -1.484884065376037010e-01 -2.457712367755023053e-01 -9.699275837946800261e-01 3.311740277556047829e-01 -2.703309797956958249e+00 8.950570597962760333e-01 -4.547618144161568732e-01 1.070309107560149936e-01 1.940874352881700737e-01 -1.254288507887903581e+00 2.957635609164036339e+00 9.102332533042767349e-01 3.501148305094317625e-01 -1.804490185797382740e+00 -1.988092662401985677e+00 6.219179725520714852e-01 1.304474898895267854e-02 2.248871942538871183e-01 -1.525772318918160009e+00 -1.600264890752148839e+00 1.559182776031815765e+00 1.219167238732058678e+00 1.366501219951143264e+00 6.109995258758481596e-01 -3.154830993951150409e-01 -4.335111325840275698e-01 2.174390683558783177e+00 -6.649973202065376787e-01 7.719176735267032630e-01 -7.415344332727907828e-01 -1.873254339792483278e-02 4.840369092084174096e-01 1.080739558856740778e+00 1.150385601235475841e+00 -2.168468404541683790e-03 -7.424908836480450525e-01 -5.879285030069444362e-01 -2.630259100774696712e-01 1.038360065482232253e+00 -1.268890831170751618e-02 -8.250207239579614160e-02 -5.077008284658525161e-01 -1.596464800282724472e-01 1.193583219635269282e-01 4.619706734541625393e-01 5.572444436833952075e-01 -2.643935826920202015e+00 -1.323573053162443003e+00 -7.675704523049828865e-01 -3.588668656636407883e-01 -4.472156266436529415e-01 6.242355649398516615e-01 -1.583161912536579230e-01 1.776190567543755705e+00 -1.253394792429735949e+00 -1.381300489735992620e+00 -1.173896796965249401e+00 -9.373347374856769720e-01 -5.123205866224572747e-01 -5.020336028821547059e-01 -8.042333549151353678e-01 4.900111245093340812e-02 -1.544770200162123158e-02 -1.084763849521654944e-01 2.149863902081091682e-01 8.359252866771245127e-01 1.175772159609632439e+00 1.550061530463933357e+00 9.866829488631138068e-01 4.285293631025952621e-01 -3.759343626556120865e-01 1.691497915256247597e-01 8.503661446815695690e-01 -7.171773446036121546e-01 -1.686184473467267741e+00 -8.144360064718134673e-01 -1.345921081822955626e-02 1.420333949459006595e+00 5.617027365615968604e-01 8.021060241611421837e-01 -2.438961826634983954e+00 -8.034707657180911733e-01 2.662217913044619411e-01 2.860917907400548771e-02 1.031807866191108092e+00 1.640585958937333277e+00 6.612008292815362287e-01 -3.351355835034324215e-01 4.322662044343013599e-01 8.619690190187946355e-01 -4.255695091456254131e-01 -5.251694175506724793e-01 1.480305959090612689e+00 1.385654910046559163e+00 -9.922401312315943037e-03 -1.077270626474231996e+00 -1.366529502085895631e+00 -2.682365077400783449e-01 1.764218997013488721e+00 -2.103358816577193036e+00 2.415457315773424263e+00 -6.463429383446551713e-01 -8.372458052597336886e-01 1.335259231242029054e+00 1.191348930989849730e+00 3.047482294844647832e-01 -3.077841880949495623e-01 1.314822560670129370e+00 6.555680564801728005e-01 -2.559594901544884338e-01 -3.339508191676334725e-01 -1.096154350737923000e+00 1.763751056238498927e-01 -5.767730006194349279e-01 -7.565265357945863411e-02 -4.681356646094982366e-01 -3.844364865827385597e-02 -3.040951692820062502e-01 -2.534948306659970396e-01 -2.771176122728835067e-01 -1.299960041747561801e-01 -2.019174728494592119e-01 -3.800090469424483031e-02 -2.249185617124303538e-01 3.323716476072001436e-02 -1.341463303165385756e+00 1.112345615773209673e+00 -2.375102309026537295e+00 -6.355607601358739256e-01 -2.978576730175787612e-01 -9.955938781925668390e-01 -1.523462439839857518e+00 1.367014926362368765e+00 1.384535451731006006e+00 6.648687650485732847e-01 -3.964455952191309196e-01 -1.443089240859950051e+00 3.960604439658698128e-01 -2.116228730551314163e-01 -2.224749852698451325e-01 3.756011476861686460e-01 5.506994434811172262e-02 -7.764978366946551080e-01 6.226270828034025095e-01 9.417230963579459324e-01 -4.152629850213121476e-01 1.157944130303144359e+00 -5.682842464287367612e-01 3.328030787173282823e-01 -9.595583247532801785e-01 -1.741804119670834761e-01 2.022777358241383272e+00 -2.154646153957363586e-01 5.569271695535393807e-01 -8.268102117568243425e-02 9.791064220733304291e-01 -4.766285325652512284e-01 2.742916613684492688e+00 5.199886446847115096e-01
-5.921044887582564975e-01 -3.889130342933711848e+00 -2.278322900787226768e+00 4.287098545443771558e-01 3.691589916102619995e-01 -1.577418068078734747e-01 7.052757080792779742e-01 -2.076129805679092222e-01 2.039522953117812509e+00 -2.351422963150146539e-01 -7.569420260651270604e-01 -7.088042900550818315e-01 5.670172067918407555e-01 1.391567418871652917e+00 2.933448727524002875e-01 -1.236965957462531129e+00 1.664570751869046905e+00 -7.088274299835153336e-01 1.279098110713116521e+00 4.654195512320286610e-01 -1.429003709312118564e-01 7.974852375632738299e-01 2.766353761643279174e+00 -1.019760705227958253e+00 5.639205701467968623e-01 -8.847525925544902359e-02 -3.101799420187720813e-01 6.079717947954731416e-01 -3.518914627924982219e-02 -1.670368589493236855e-01 -2.520338784288276290e+00 -4.300020909922342760e+00 -1.852608381423417605e-01 2.365291493591333838e-01 -1.312239630436311255e-01 -3.110129794423807104e-01 -1.228489544566997438e+00 -5.460169504074258162e-01 5.617166205186571171e-01 2.860537384132974537e-01 2.376259819668847528e-01 2.415978221273495374e-01 -4.797025435024933615e-01 7.301727284119065020e-01 1.060148622095284043e+00 2.521244326820976656e-01 -2.087262682358799470e-01 9.903786525442714872e-02 -3.480615475264260961e-01 -1.687574411835177646e-01 7.143696999536719439e-01 -5.371754408632736788e-02 -4.198822289572850530e-01 -7.611072131831700949e-01 -4.125232174947771613e-01 5.924860404670944103e-01 -1.533236231389566995e-01 -8.111408806628725987e-01 1.474667015641667023e+00 -1.995962809172559194e+00 -2.002895017510626374e+00 7.693306295278298790e-02 4.873289496935671039e-01 -3.083112642426031336e-01 6.831667920125789051e-01 -5.933951825442179695e-02 1.457211282072643499e+00 5.614620813058877197e-02 -1.315802665194449439e+00 -5.294467047664603854e-01 2.699092674555097493e-01 -2.884469212339606931e-02 -7.835719699271141980e-01 -5.462493781330252096e-01 -4.512234622483477509e-01 -1.390586800126701217e+00 1.039163278109192845e+00 1.341608313383569451e+00 -5.164317805741554072e-03 9.874013150858185206e-02 -6.039845280160527352e-01 2.302388940578774079e+00 2.956187563864726142e-01 -3.273811363750263048e-01 -5.135850551561942368e-01 -2.940030751611774074e-01 3.654946553876478599e-01 2.478562471714935711e+00 -1.074585880555305906e+00 -7.211718104718786160e-01 -3.023087668069344147e-01 4.779403093971187899e-01 8.943428073386264776e-01 -1.090845022713997636e+00 -4.301537860786320833e-01 6.271969615587171809e-01 -1.557198912834110716e-01 -7.213281335439632180e-02 2.893977151822645921e-01 -6.282362014557004715e-01 2.949803000499587657e+00 8.316870802293577780e-01 1.092231875758116422e+00 -1.033218373384292149e-01 1.913251963200229611e+00 4.523778875668670874e-01 -9.048581050394738368e-01 5.249030512633704459e-01 2.569097698821604658e-01 1.286899866139653126e+00 -1.063483342892877825e+00 -8.313939744691992706e-01 2.486596140646440689e-01 3.601663012003438746e-01 -3.854834397891996889e-01 2.224137930146541375e-01 -6.414799538291819647e-02 -2.052573358533715253e-01 -2.363363166221869871e-01 1.233101075193492827e-03 4.078592363638326446e-01 6.313714046481335718e-01 3.528746526406091877e-01 5.585397654550434687e-01 1.688291235395986467e+00 1.754934743505307759e+00 2.689651583754199549e-01 -2.152471000684607616e-01 8.498519240497122151e-01 -1.151442838854574019e-01 -1.528213324257585937e+00 4.681130389016964766e-01 6.630093432437779155e-01 7.321293379161230019e-01 -7.246494846051285688e-01 -4.703550408565936869e-01 -5.282418858260189420e-01 2.202684645385460105e-01 -2.044335544011363290e-02 -1.944196218163498080e-01 -2.282081339385471086e+00 8.801965977562356547e-02 -1.126791101763341407e-01 -5.152490731208838725e-04 4.191067842444445302e-01 -2.383042389803043670e-01 -3.579587520277809909e-01 4.031818854964597798e-01 6.006467218946678344e-01 7.020268621272043319e-01 3.407750411730099960e-01 -6.545514422909912700e-01 2.632228565794709763e-01 1.097483096850642159e+00 -4.606193016336418977e-01 2.948793071178620329e-01 -1.506177941741242421e-01 -5.643571434632436157e-01 -1.572553026680734156e+00 -1.104550545214886936e+00 2.217067396458505257e-01 2.331424922777221298e-02 -4.972410665932457952e-01 1.255531379155102323e-01 -1.153060576962396722e+00 -3.652303459828732529e-02 -3.487470036286917097e-01 -5.117816834002709703e-01 6.710440406165461003e-01 -2.448255850335170208e-02 1.501498533991342255e-01 5.031468905501255140e-01 1.111179363380157721e-02 -2.678220459108014428e-01 -1.599855056908558781e+00 -1.505990765431246547e+00 1.063882378103199189e+00 -1.070005717387354227e-01 1.045156519573488207e+00 -6.539549463580368593e-01 -3.115446835757210153e-01 -6.156249404594034136e-01 -4.278665327081313530e-01 7.175984913011030919e-01 -1.105493111633081060e+00 -2.552745482728546733e-02 2.351037297676253635e-01 5.548430333326221930e-01 1.454982135633542950e-01 1.326025885576401775e+00 -4.981563793179515365e-01 2.578982047807163003e+00
-1.146652359448192771e+00 -8.840805061886528593e-01 -2.555216312864620587e+00 1.107456406005511845e-01 -8.639883634400978840e-01 1.944011098736029564e-01 2.595160971547285644e+00 4.608229330038574045e-01 -1.273372263977386787e+00 -4.136457611341213259e-01 -9.179275366187555907e-01 -4.068801602807766149e-01 -6.409904157876538111e-01 5.912868779536035735e-01 -5.891425779187591666e-03 -2.604712619784032568e-01 -2.305446496455796912e-01 -6.563280745740577293e-01 -4.200241538516776840e-01 -6.305429952102117319e-01 -5.665168701170436756e-03 6.226965025887032379e-01 1.722320299929766541e-01 2.711768213130376637e-01 1.887198460666553723e+00 3.191597769128938777e-01 -1.449594131852943280e+00 8.091868422618153645e-01 6.802881849154424065e-01 6.021101938129332920e-01 4.962856446592551762e-01 1.754030743634502620e+00 -7.156228556335079150e-01 -1.207729429217659772e-01 -1.117442570676177999e-01 -9.195643008899569981e-01 3.222127048042298658e-01 -2.493876990572906127e+00 8.101072971928398037e-01 -4.784123639371636871e-01 9.041952746450097889e-02 6.060347256752672551e-02 -1.275130384317706422e+00 3.237066700059645363e+00 1.112948796574378063e+00 -1.068560757411835538e-01 -2.156389361899359258e+00 -2.844705045098723684e+00 6.576599060105677852e-01 1.219278824609171946e-01 2.886181567043691332e-01 -8.505260672980768932e-01 -1.319434605517256553e+00 1.012992533271454221e+00 1.323002268261081582e+00 1.721713005363543436e+00 5.605313419622262039e-01 -3.818355586268049606e-01 -6.617572160052056507e-01 2.674498530174632904e+00 -6.210844209078310030e-01 4.380311319380519874e-01 -2.936734597361569388e-01 -3.367132124019702188e-01 7.601944715616236747e-01 1.040605152760920360e+00 9.777103130578381762e-01 -7.578789360563707722e-02 -5.029021215293614233e-01 -6.514177817604536180e-01 -8.266610877735858232e-02 1.402872559463032687e+00 -3.314151972319457577e-03 -5.054223168460934140e-02 -5.618739720320052866e-01 -1.549480461149934651e-01 1.238407832114258450e-01 5.616939948108552461e-01 6.676491560050250573e-01 -2.934903457691526274e+00 -1.413090123418034638e+00 -6.374638906943774774e-01 -3.925683716549278057e-01 -3.118583581611539257e-01 6.213980954932637468e-01 -7.829831873036378898e-02 1.925425622438815987e+00 -1.005788816439767031e+00 -1.455566290271332441e+00 -9.674747513807212540e-01 -7.451355203576863762e-01 -5.660741261530146673e-01 -4.538860966801041563e-01 -7.195329893181497960e-01 1.853302579276424472e-02 -8.900644916815747543e-02 -1.069383510422806938e-01 2.119900265862774413e-01 9.846651471037064507e-01 1.388047064425958599e+00 2.056186786913775766e+00 1.579363878949682221e+00 4.606470695477621891e-01 -3.188980386112785226e-01 2.491614934013366700e-01 9.967416186428721403e-01 -9.420820223589823073e-01 -1.860346373491604366e+00 -5.890582457351345447e-01 7.072384882310767118e-02 1.054319931233183016e+00 7.191257265777190044e-01 9.507908629801155032e-01 -2.868695494457388140e+00 -9.627927725276617110e-01 3.217874443416839925e-01 2.965099007414810986e-02 6.621742489376417629e-01 1.157992981263170629e+00 9.728678973676391228e-01 -3.622170130801902199e-01 5.068672768216120339e-01 1.082595895337745251e+00 -4.075877278702120798e-01 -5.372381757803602609e-01 1.493317797959126558e+00 1.522201056629911786e+00 -1.903799045324798822e-01 -1.329342608651880475e+00 -1.358169303053161414e+00 -2.979121804045556376e-01 1.608627660888041877e+00 -1.973927426656216122e+00 2.359789847051094291e+00 -6.211651535470326113e-01 -8.007762496071596514e-01 1.324878145126096474e+00 1.189792899357849931e+00 2.736610211855396435e-01 -2.619347338966687144e-01 8.642603861543500798e-01 5.074061800437983383e-01 -2.103290939453787978e-01 -3.808539114405896098e-01 -1.123982428672137379e+00 1.988707156057054615e-01 -4.336345455356732104e-01 3.249771549210939831e-02 -5.853260323891152916e-01 1.443108781243960907e-02 -4.874487631007897726e-01 -2.209606055090257253e-03 -2.338803988844371795e-01 -1.899227623907588647e-01 -3.600675708390272955e-01 -1.513752411648498497e-01 -2.663452042561076927e-01 8.564241779454788428e-02 -1.542071056065504653e+00 1.104157166431516179e+00 -2.417806275619747591e+00 -5.784365043634929204e-01 -3.605895047803622799e-01 -7.057626750176465569e-01 -1.430908382532517509e+00 1.305210234398823665e+00 1.180834661730266077e+00 5.152588433128891809e-01 -3.885142561933658395e-02 -1.301006480733391202e+00 5.405003914688619737e-01 -1.919595903135451198e-01 -2.488411339476896134e-01 3.431347996526025179e-01 -1.418138227360976611e-01 -1.062618938010725822e+00 4.586050994186574026e-01 9.445687933346436083e-01 -4.069578075961869934e-01 1.007747482826511165e+00 -4.607134040092718541e-01 1.508522787822511313e-01 -8.608937836775814034e-01 -1.478461449684141116e-01 1.986067147333100191e+00 -2.355418457459676485e-01 4.554472705184224868e-01 -5.370314590863536214e-02 8.595388123126376234e-01 -5.223843986085339175e-01 2.756926040578809189e+00 5.868537818863629463e-01