6.196480000000000210e+00 1.166479999999999961e+01 3.766319999999999890e+00 2.331710000000000171e+00 5.236410000000000231e+00 4.823120000000000185e-01 3.645490000000000119e+00 3.574699999999999989e+00 5.066799999999999748e+00 1.613920000000000021e+00 4.944950000000000401e+00 8.375420000000000087e+00 9.096299999999999386e+00 1.104310000000000080e+01 4.399790000000000312e+00 3.468210000000000015e+00 8.396369999999999223e+00 1.164390000000000036e+01 7.733450000000000379e+00 8.068459999999999965e+00 9.973229999999999151e+00 2.786779999999999813e+00 1.954120000000000079e+00 3.814899999999999958e-01 3.772790000000000088e+00 3.865740000000000176e+00 8.095710000000000406e+00 5.274230000000000196e+00 8.333270000000000621e+00 1.347539999999999960e+00 5.131409999999999805e+00 8.266239999999999810e+00 4.858439999999999870e+00 1.060640000000000072e+01 4.183150000000000368e+00 2.239069999999999894e+00 9.850899999999999324e+00 6.535630000000000273e+00 5.316490000000000382e-01 1.203669999999999973e+01 3.795669999999999877e+00 7.095839999999999925e+00 4.058959999999999901e+00 1.000450000000000017e+01 6.729199999999999626e+00 8.960399999999999920e+00 8.300779999999999603e+00 2.532989999999999853e+00 7.794800000000000395e+00 2.573729999999999851e+00 1.127069999999999972e+01 1.165590000000000082e+01 3.266750000000000043e+00 4.680900000000000283e+00 1.142079999999999984e+00 7.235089999999999577e+00 8.942819999999999325e+00 5.220959999999999823e+00 6.321110000000000007e+00 9.228690000000000282e+00 1.005879999999999974e+01 1.138119999999999976e+01 8.260350000000000747e+00 7.641670000000000407e-01 1.064910000000000068e+01 8.891429999999999723e+00 1.342559999999999976e+00 9.718099999999999739e+00 1.132179999999999964e+01 6.399049999999999905e+00 9.515689999999999316e+00 3.195479999999999876e+00 5.511639999999999873e+00 5.506179999999999630e+00 4.967939999999999579e+00 1.462460000000000093e+00 3.654599999999999849e+00 2.534089999999999954e+00 1.050210000000000043e+01 1.080059999999999931e+01 1.133130000000000059e+01 8.309990000000000876e+00 3.956290000000000084e+00 9.357770000000000366e+00 4.211159999999999570e+00 8.658360000000000500e-01 4.490249999999999631e+00 8.056229999999999336e+00 1.024099999999999966e+01 8.626490000000000435e+00 4.766589999999999883e+00 5.582869999999999777e+00 1.567099999999999937e+00 4.755270000000000330e+00 2.924220000000000041e+00 2.310270000000000046e+00 1.025709999999999944e+01 1.541879999999999917e+00 2.769280000000000186e+00 4.616299999999999848e+00 3.516700000000000159e+00 1.081990000000000052e+01 9.388889999999999958e+00 8.770550000000000068e+00 5.406959999999999766e+00 7.156930000000000014e+00 8.032469999999999999e+00 7.183950000000000280e+00 5.907499999999999751e+00 1.070490000000000030e+01 1.062090000000000067e+01 1.081339999999999968e+00 2.189490000000000158e+00 9.094480000000000786e+00 2.129179999999999851e+00 5.996579999999999799e+00 5.207810000000000272e+00 3.536859999999999893e+00 1.038439999999999941e+01 4.620860000000000412e+00 8.104670000000000485e+00 9.976499999999999702e+00 3.827539999999999831e-01 1.096669999999999945e+01 1.508170000000000011e+00 1.078739999999999988e+01 8.446809999999999263e+00 1.692169999999999952e+00 7.811379999999999768e+00 1.154240000000000066e+01 4.710239999999999760e+00 1.101409999999999911e+01 8.265489999999999782e+00 5.138119999999999798e+00 5.162569999999999659e+00 7.427500000000000213e+00 5.731150000000000411e+00 2.387970000000000148e+00 1.708509999999999973e+00 7.231160000000000032e+00 2.017430000000000057e+00 3.219759999999999955e+00 1.085769999999999902e+00 7.123490000000000322e+00 1.047419999999999973e+01 8.423849999999999838e+00 1.016789999999999949e+01 1.139959999999999951e+01 1.292720000000000091e+00 6.224149999999999849e+00 6.373450000000000060e+00 3.792180000000000106e+00 6.752779999999999561e+00 2.849499999999999922e+00 1.135929999999999929e+01 9.957420000000000826e+00 3.729130000000000056e+00 1.033610000000000007e+01 1.118500000000000050e+00 3.938320000000000154e-01 8.109600000000000364e+00 6.652639999999999887e+00 9.465540000000000731e+00 5.685229999999999784e+00 8.292320000000000135e+00 6.562630000000000408e-01 1.053519999999999968e+01 5.381280000000000285e+00 6.595570000000000377e+00 1.165340000000000042e+00 1.305670000000000108e+00 1.797490000000000032e+00 9.548560000000000381e-01 2.500430000000000152e+00 5.829559999999999853e+00 7.564130000000000020e-01 8.696210000000000662e+00 1.127609999999999957e+01 7.040860000000000340e+00 4.142619999999999969e+00 1.168750000000000000e+01 9.729290000000000660e+00 1.932530000000000081e+00 7.594759999999999955e+00 2.410169999999999924e+00 3.782840000000000202e+00 6.816659999999999719e+00 5.155420000000000336e+00 1.158389999999999986e+01 3.482709999999999972e+00 8.392509999999999692e+00 9.135659999999999670e+00
5.761680000000000135e+00 8.338680000000000092e+00 1.214400000000000013e+01 8.483520000000000394e+00 5.542860000000000120e+00 1.079759999999999920e+01 1.075079999999999991e+01 1.963559999999999972e+00 8.153130000000000877e+00 3.140509999999999913e+00 1.138310000000000066e+01 1.222580000000000000e+00 2.608820000000000139e+00 5.485430000000000028e+00 1.652220000000000022e+00 7.235089999999999577e+00 1.047729999999999961e+01 5.214030000000000165e+00 1.080879999999999974e+01 8.658310000000000173e+00 5.160180000000000433e+00 8.269299999999999429e+00 4.660029999999999895e+00 4.113599999999999923e+00 5.790549999999999642e+00 7.182010000000000005e+00 2.054390000000000160e+00 2.364279999999999937e+00 1.114170000000000105e+00 6.235660000000000203e+00 2.358249999999999957e+00 2.843480000000000008e+00 8.774380000000000734e+00 9.479589999999999961e+00 9.058329999999999771e+00 7.242950000000000443e+00 7.319749999999999979e+00 5.577099999999999724e+00 6.291500000000000092e+00 5.040600000000000414e+00 5.614300000000000068e+00 6.523069999999999702e+00 9.838919999999999888e+00 1.068379999999999974e+01 1.230369999999999919e+01 8.248910000000000409e+00 5.277650000000000396e+00 1.348179999999999934e+00 3.561890000000000001e+00 4.942099999999999937e+00 8.726110000000000255e+00 7.700400000000000134e+00 1.452970000000000095e+00 2.341759999999999842e+00 4.421590000000000131e+00 9.586819999999999453e+00 2.594190000000000218e+00 1.158799999999999919e+01 4.011849999999999916e+00 1.016389999999999993e+01 1.116990000000000016e+01 5.358089999999999797e+00 6.298670000000000435e+00 2.382740000000000136e-01 1.878929999999999989e+00 1.162149999999999928e+01 8.802039999999999864e+00 4.250680000000000014e+00 8.962289999999999424e+00 1.150789999999999935e+01 5.535470000000000113e+00 3.458590000000000275e-01 9.383820000000000050e+00 6.807240000000000180e+00 8.335330000000000794e+00 7.094409999999999883e+00 7.048099999999999810e+00 8.960900000000000531e+00 6.229860000000000397e-01 8.875220000000000553e+00 8.142910000000000537e+00 6.747899999999999565e+00 2.857819999999999805e+00 1.141200000000000081e+01 5.470860000000000056e+00 3.128270000000000106e+00 9.027620000000000644e+00 1.065049999999999919e+01 9.849249999999999616e+00 2.463989999999999903e+00 7.303840000000000110e+00 9.893480000000000274e+00 1.069899999999999984e+01 7.329180000000000028e+00 9.501720000000000610e+00 7.370140000000000136e+00 6.535149999999999793e+00 1.776459999999999928e+00 5.340620000000000367e+00 9.347870000000000346e+00 3.069409999999999972e+00 5.789860000000000007e+00 1.633119999999999905e+00 1.172930000000000028e+01 9.946960000000000690e+00 9.239990000000000592e+00 1.481109999999999927e+00 1.106949999999999967e+01 9.119369999999999976e+00 1.114409999999999989e+01 9.180519999999999570e+00 5.277779999999999916e+00 6.505100000000000326e-01 8.339270000000000849e+00 2.464659999999999851e+00 6.428079999999999572e+00 6.668809999999999683e+00 6.731480000000000352e+00 7.627080000000000304e+00 4.281489999999999796e+00 1.018110000000000070e+01 3.461219999999999963e+00 1.749949999999999894e+00 1.142900000000000027e+01 6.539760000000000240e+00 2.876180000000000181e+00 1.148959999999999937e+01 8.730249999999999844e+00 1.088160000000000061e+01 1.710979999999999945e+00 2.963039999999999896e+00 8.614060000000000050e-01 4.135189999999999699e+00 5.830079999999999707e+00 1.179289999999999949e+01 1.778720000000000079e+00 3.041269999999999918e+00 4.019949999999999690e+00 1.183120000000000083e+01 1.161720000000000041e+01 7.204320000000000057e+00 3.257109999999999950e+00 9.122769999999999158e+00 1.195809999999999995e+01 4.221879999999999633e+00 4.934560000000000279e+00 3.821499999999999897e+00 6.521770000000000067e+00 1.074600000000000044e+01 1.589429999999999898e+00 3.859700000000000131e+00 1.289109999999999978e+00 1.071860000000000035e+01 9.495299999999999574e-02 6.302710000000000257e+00 8.264110000000000511e+00 9.508319999999999439e+00 8.102999999999999758e+00 1.302410000000000068e+00 5.923129999999999784e-01 1.148550000000000004e+01 1.364970000000000017e+00 2.078980000000000050e+00 7.811139999999999972e+00 3.069960000000000022e+00 4.151699999999999946e+00 1.091019999999999968e+01 5.002349999999999852e+00 3.502920000000000034e+00 9.564209999999999212e+00 8.813290000000000290e+00 9.729510000000000103e-01 3.042580000000000062e+00 6.582250000000000156e+00 1.215910000000000046e+00 9.670790000000000219e+00 5.484390000000000320e+00 3.968770000000000131e+00 2.869520000000000071e+00 6.774409999999999599e+00 5.162340000000000373e+00 8.396400000000000530e-01 2.675260000000000193e+00 5.405249999999999666e+00 3.670459999999999834e+00 1.026119999999999921e+00 1.804000000000000048e+00 6.650999999999999801e+00 1.053330000000000055e+01 1.026820000000000022e+01 1.163049999999999962e+01 4.649530000000000385e+00
4.996909999999999741e+00 2.155809999999999782e+00 3.428339999999999943e+00 8.558239999999999625e+00 2.864710000000000090e+00 1.076270000000000060e+01 9.011039999999999495e+00 7.924920000000000186e+00 6.057900000000000063e+00 7.143390000000000128e+00 1.101190000000000069e+01 4.388329999999999842e+00 1.154110000000000014e+01 2.673579999999999846e+00 9.398429999999999396e+00 7.496870000000000367e+00 7.721870000000000012e+00 3.495280000000000165e+00 9.494030000000000413e+00 1.056320000000000014e+01 3.630279999999999951e+00 4.343289999999999651e+00 6.003709999999999880e+00 6.659010000000000318e+00 5.880939999999999834e+00 3.194300000000000139e+00 1.176459999999999972e+01 7.193159999999999776e+00 5.172889999999999766e+00 1.203430000000000000e+01 8.023529999999999163e+00 9.946960000000000690e+00 9.211650000000000560e+00 4.334769999999999790e+00 1.158109999999999928e+01 1.277670000000000083e+00 6.771449999999999747e+00 8.646459999999999368e+00 7.125020000000000131e+00 1.313020000000000076e+00 8.061149999999999594e+00 8.200300000000000367e+00 1.047170000000000023e+01 9.262209999999999610e+00 8.348789999999999267e+00 7.653340000000000032e+00 6.526929999999999676e-01 1.098440000000000083e+01 1.681349999999999900e+00 4.036249999999999893e+00 7.267360000000000042e+00 8.553630000000000067e+00 1.505740000000000078e+00 4.547780000000000378e+00 4.127909999999999968e+00 1.093379999999999974e+01 6.127769999999999939e+00 9.089959999999999596e+00 1.150890000000000057e+01 6.638289999999999580e+00 4.091669999999999696e+00 1.167719999999999914e+01 3.994470000000000187e+00 1.166159999999999997e+01 1.917869999999999964e+00 1.310459999999999958e+00 6.422729999999999606e+00 3.721060000000000034e+00 9.100989999999999469e+00 1.019699999999999918e+01 4.948760000000000048e+00 4.589190000000000325e+00 1.678949999999999942e+00 1.151870000000000083e+01 6.450520000000000032e+00 1.291029999999999944e+01 4.917989999999999640e+00 4.087320000000000064e+00 7.257959999999999745e+00 6.051409999999999734e+00 7.814919999999999867e+00 7.493070000000000341e+00 1.126110000000000078e+01 2.175300000000000011e+00 1.865709999999999980e+00 1.107080000000000020e+01 1.174080000000000013e+01 7.909860000000000113e+00 2.332790000000000141e+00 2.062110000000000110e+00 2.559260000000000090e+00 9.386929999999999552e+00 9.915879999999999583e+00 6.137909999999999755e+00 9.581409999999999982e+00 1.123259999999999970e+01 1.102769999999999939e+01 8.430079999999999796e-01 3.144579999999999931e+00 9.291130000000000777e+00 5.031270000000000131e+00 9.464090000000000558e+00 1.143849999999999945e+01 1.014680000000000071e+01 3.719399999999999928e-01 4.645349999999999646e+00 8.089689999999999159e+00 4.218639999999999723e+00 6.666559999999999597e+00 5.285000000000000142e+00 4.333649999999999558e+00 1.222220000000000084e+01 8.100910000000000721e+00 1.028919999999999924e+01 9.913719999999999644e+00 6.934009999999999785e+00 2.645659999999999901e+00 9.667730000000000601e+00 4.338409999999999656e+00 1.403089999999999948e+00 3.921199999999999797e+00 4.698050000000000281e+00 9.094120000000000203e+00 3.206620000000000026e+00 1.908090000000000064e+00 7.222190000000000332e+00 3.121459999999999901e+00 3.418660000000000032e+00 4.524779999999999802e+00 8.267919999999999714e-01 4.502369999999999983e+00 1.019420000000000037e+01 5.867130000000000400e+00 7.498990000000000045e+00 8.499409999999999465e-01 1.168820000000000014e+01 6.356950000000000323e+00 8.160529999999999617e+00 5.827749999999999986e+00 2.259170000000000122e+00 6.071049999999999613e+00 9.664199999999999458e-01 1.102219999999999978e+01 4.011560000000000237e+00 4.790049999999999919e+00 8.295379999999999754e+00 8.381180000000000518e+00 7.153270000000000017e+00 3.705789999999999917e-01 8.256679999999999353e+00 1.732480000000000020e+00 6.997679999999999900e+00 5.559989999999999988e+00 1.134730000000000061e+01 9.651139999999999830e+00 5.604330000000000034e+00 2.641640000000000099e-01 1.150339999999999918e+01 8.939389999999999503e+00 8.591559999999999420e+00 3.069370000000000154e+00 7.286719999999999864e+00 1.214980000000000082e+01 2.611000000000000210e+00 6.034880000000000244e+00 3.003740000000000077e+00 6.264999999999999680e+00 1.143410000000000082e+01 9.965510000000000090e+00 1.134609999999999985e+01 1.049879999999999924e+01 8.524269999999999570e+00 7.896499999999999631e+00 1.138620000000000054e+01 4.453529999999999767e+00 1.164480000000000004e+01 1.076110000000000078e+01 1.786869999999999958e+00 1.530950000000000033e+00 9.973459999999999326e+00 3.027439999999999909e+00 8.341490000000000293e+00 1.593830000000000080e+00 3.546749999999999847e+00 2.657659999999999911e+00 1.062060000000000004e+00 2.004579999999999806e+00 5.162099999999999689e+00 1.837639999999999940e+00 6.079809999999999937e-01 8.340370000000000061e+00 2.468970000000000109e+00
8.838150000000000617e+00 7.328149999999999942e+00 1.848749999999999893e+00 5.951920000000000321e+00 1.106339999999999968e+01 5.942350000000000243e+00 6.206459999999999866e+00 7.037880000000000358e+00 5.229209999999999692e-01 5.064390000000000391e+00 1.885170000000000012e+00 4.097719999999999807e+00 4.731040000000000134e+00 1.201270000000000060e+01 1.149430000000000085e+01 5.081570000000000142e+00 4.192689999999999806e+00 4.027090000000000281e+00 8.636409999999999698e+00 1.198540000000000028e+01 2.813490000000000157e-01 1.133580000000000076e+01 1.143219999999999992e+01 3.919119999999999937e+00 1.068539999999999957e+01 9.162290000000000489e+00 6.321830000000000283e+00 3.041949999999999932e+00 6.169360000000000177e+00 9.027160000000000295e+00 2.652159999999999851e+00 2.313309999999999977e+00 6.140010000000000190e+00 1.231749999999999901e+00 7.174260000000000304e+00 2.184400000000000119e+00 1.948489999999999944e-01 9.045569999999999666e+00 8.653629999999999711e+00 8.590579999999999217e+00 8.338129999999999598e+00 6.046260000000000190e+00 1.231450000000000067e+01 3.620010000000000172e+00 1.335790000000000033e+00 6.897639999999999993e+00 1.046039999999999992e+01 4.058590000000000253e-01 5.907560000000000144e+00 7.993299999999999628e+00 2.794270000000000032e+00 1.094030000000000058e+01 3.970860000000000056e+00 6.965810000000000279e+00 5.866869999999999585e+00 2.091349999999999820e+00 6.199379999999999669e+00 4.430640000000000356e+00 9.062469999999999359e+00 9.030150000000000787e+00 9.648469999999999658e+00 3.067800000000000082e+00 9.353550000000000253e+00 9.039960000000000218e-01 1.001640000000000086e+01 5.620110000000000383e+00 1.180100000000000016e+01 6.930299999999999905e+00 5.692619999999999791e+00 2.157480000000000064e+00 8.247519999999999740e+00 6.575499999999999901e+00 1.031240000000000023e+01 7.850700000000000456e-01 2.325089999999999879e+00 3.282119999999999926e+00 2.075860000000000039e+00 1.010239999999999938e+01 2.323659999999999837e+00 1.062579999999999991e+01 8.897380000000000289e-01 2.475219999999999920e-01 1.980089999999999906e+00 5.886079999999999757e+00 9.349660000000000082e+00 3.718020000000000103e+00 1.908220000000000027e+00 1.149379999999999985e-01 1.754850000000000021e+00 2.616210000000000147e+00 2.233810000000000073e+00 2.146539999999999893e+00 8.163280000000000536e-01 4.998889999999999723e-01 9.647000000000000020e-02 -1.379900000000000015e-01 7.033369999999999678e+00 5.076939999999999564e+00 2.286490000000000133e+00 6.311840000000000117e+00 1.126960000000000051e+01 8.604119999999999990e+00 4.104969999999999786e+00 5.234729999999999883e+00 2.476599999999999982e-02 1.206109999999999971e+01 1.184019999999999939e+01 6.648930000000000007e+00 8.467019999999999769e+00 1.412500000000000089e+00 4.121430000000000149e+00 9.960869999999999891e+00 9.258070000000000022e+00 8.782439999999999358e+00 1.062880000000000047e+00 6.990490000000000315e+00 1.055649999999999977e+01 5.453979999999999606e+00 6.147929999999999673e+00 9.504770000000000607e+00 4.838079999999999714e+00 1.096969999999999956e+01 2.362299999999999844e+00 6.621999999999999886e+00 1.844459999999999988e+00 9.182330000000000325e+00 2.517590000000000217e+00 3.375719999999999832e+00 4.102109999999999701e+00 8.647640000000000882e+00 8.432999999999999829e+00 1.129369999999999941e+01 8.556160000000000210e+00 1.426030000000000075e-01 6.901880000000000237e+00 8.354290000000000660e+00 9.865099999999999980e+00 3.261680000000000135e+00 1.101079999999999970e+01 1.174579999999999913e+01 1.046470000000000056e+01 5.864630000000000010e+00 4.735059999999999825e+00 6.755279999999999951e+00 1.151420000000000066e+01 8.293699999999999406e+00 3.394600000000000062e+00 1.516429999999999945e+00 4.641569999999999752e+00 6.964480000000000004e+00 1.106859999999999999e+01 6.160260000000000069e+00 1.411759999999999959e-01 1.157569999999999943e+01 9.632369999999999877e+00 3.949909999999999810e-01 1.051390000000000047e+00 1.122130000000000072e+00 8.695690000000000808e+00 8.766389999999999461e+00 5.809400000000000119e+00 5.599520000000000053e+00 1.628630000000000022e+00 1.200559999999999938e+01 3.824689999999999923e+00 3.754989999999999828e+00 6.405289999999999928e+00 3.608519999999999950e+00 7.297220000000000262e+00 2.185200000000000031e+00 4.302389999999999826e-01 4.191270000000000273e+00 1.182300000000000040e+01 7.055819999999999759e+00 1.188729999999999976e+01 4.714249999999999829e+00 4.016140000000000043e+00 7.670049999999999812e+00 5.055880000000000152e+00 1.151810000000000045e+01 1.618239999999999901e+00 4.182699999999999640e+00 9.957349999999999923e+00 5.860829999999999984e+00 8.340949999999999420e+00 6.351779999999999760e+00 9.679790000000000560e+00 5.130300000000000082e+00 8.392500000000000071e+00 3.019200000000000106e+00 1.036110000000000042e+01 1.050399999999999956e+01
9.998720000000000496e+00 6.449970000000000425e+00 7.841809999999999725e+00 5.021029999999999660e+00 3.899840000000000195e+00 1.137819999999999965e+01 6.806429999999999980e-01 2.388920000000000154e+00 1.182269999999999932e+01 7.778929999999999900e+00 2.312749999999999861e+00 2.447130000000000027e+00 5.495800000000000018e+00 5.378709999999999880e+00 1.799800000000000066e+00 2.495969999999999800e+00 6.224870000000000125e+00 7.533590000000000231e+00 1.243840000000000057e+00 9.255879999999999441e+00 1.035749999999999993e+01 5.450569999999999915e+00 9.000479999999999592e-01 9.126099999999999490e-02 1.585809999999999997e-01 4.543449999999999989e+00 8.346700000000000230e+00 1.740699999999999914e+00 9.146689999999999543e+00 7.117519999999999847e+00 1.083820000000000050e+01 4.552529999999999966e+00 2.742040000000000033e-01 3.899589999999999890e+00 1.160670000000000002e+01 3.139349999999999863e+00 6.447899999999999743e-01 7.205250000000000377e+00 5.741080000000000183e+00 7.271010000000000417e+00 8.453290000000000859e+00 2.542539999999999800e+00 9.490669999999999717e+00 9.705220000000000624e+00 8.522169999999999135e+00 6.048899999999999721e+00 4.669740000000000002e+00 8.346230000000000260e+00 8.348420000000000840e+00 1.203650000000000020e+01 3.303260000000000085e-01 8.222799999999999443e+00 4.471180000000000376e+00 3.194609999999999950e+00 5.912519999999999776e+00 6.726720000000000255e+00 3.907340000000000035e+00 5.433460000000000178e+00 1.057709999999999928e+00 5.909010000000000318e+00 1.154139999999999944e+01 8.368679999999999453e+00 8.540100000000000691e+00 1.077190000000000092e+00 1.610139999999999905e-01 9.249230000000000507e-01 3.333300000000000152e-02 7.949919999999999654e+00 6.767260000000000497e-01 8.793210000000000193e+00 5.905190000000000161e+00 1.026089999999999947e+01 9.535569999999999879e+00 3.548880000000000035e+00 9.100989999999999469e+00 6.288100000000000633e-02 2.590679999999999872e+00 7.244539999999999758e+00 2.989930000000000199e+00 5.638169999999999682e+00 1.233500000000000013e-01 8.432100000000000151e+00 1.122760000000000069e+01 7.173440000000000261e+00 3.529570000000000096e+00 4.692639999999999922e+00 4.520590000000000330e+00 7.985280000000000156e-01 1.183999999999999986e+01 9.156750000000000611e+00 3.352599999999999802e+00 1.808230000000000004e+00 1.248609999999999998e+00 3.109259999999999913e+00 1.087289999999999957e+01 8.806400000000000006e+00 1.027619999999999933e+01 1.992439999999999989e+00 1.187750000000000083e+00 1.165010000000000012e+01 1.112519999999999953e+01 5.975130000000000052e+00 4.871310000000000251e+00 2.663790000000000102e+00 3.323799999999999866e+00 9.324239999999999640e+00 8.617000000000000215e-01 9.740640000000000853e+00 6.992779999999999774e+00 3.360650000000000137e+00 5.508650000000000269e+00 7.209830000000000405e-01 6.453299999999999592e+00 1.044260000000000055e+01 5.781299999999999883e+00 7.055360000000000298e+00 1.153850000000000087e+01 2.818459999999999965e+00 1.824759999999999938e+00 1.029579999999999984e+01 7.393169999999999575e+00 7.093020000000000103e+00 7.075990000000000002e+00 2.709150000000000169e+00 7.710019999999999651e-01 6.911290000000000155e+00 3.075540000000000163e+00 6.983859999999999957e+00 2.527600000000000069e+00 5.121059999999999945e+00 1.039489999999999981e+01 7.055200000000000138e+00 3.127359999999999918e+00 3.651520000000000099e+00 6.973950000000000315e+00 9.370889999999999276e+00 1.182189999999999941e+01 4.180970000000000297e+00 1.067820000000000036e+01 9.386329999999999174e+00 3.183670000000000222e+00 9.438620000000000232e+00 7.501800000000000246e+00 5.272000000000000242e+00 8.554059999999999997e-01 8.767719999999999958e-01 3.692919999999999980e+00 5.253599999999999604e+00 9.817209999999999326e+00 8.622309999999999697e-01 6.171240000000000059e+00 1.461929999999999952e+00 8.684820000000000206e+00 6.362490000000000201e+00 9.679639999999999134e+00 9.561640000000000583e+00 2.127769999999999939e+00 9.258929999999999438e+00 6.792639999999999789e-01 1.123879999999999946e+01 1.053340000000000032e+01 1.170439999999999953e-01 3.325060000000000238e-01 4.981589999999999741e+00 4.144359999999999822e+00 9.864560000000000883e+00 6.286039999999999850e+00 1.565150000000000041e+00 6.521580000000000155e+00 1.260290000000000021e-01 3.333209999999999784e+00 3.807119999999999838e+00 7.729790000000000383e+00 9.558199999999999363e+00 4.541780000000000150e+00 7.845600000000000129e+00 5.876960000000000406e+00 2.516739999999999977e+00 9.661139999999999617e+00 4.573380000000000223e+00 1.011650000000000027e+01 2.846830000000000194e+00 4.585049999999999848e+00 8.640980000000000771e+00 9.096220000000000638e+00 1.141430000000000078e+01 7.651760000000000339e+00 3.947760000000000158e+00 1.403040000000000120e-01 1.984900000000000109e+00 3.703079999999999927e+00 2.422839999999999883e+00
9.619690000000000296e+00 6.455449999999999910e+00 8.653470000000000439e+00 3.131069999999999798e+00 1.165670000000000073e+01 7.582659999999999734e+00 4.227599999999999802e+00 4.238389999999999880e+00 5.771460000000000479e-01 1.091380000000000017e+01 5.804009999999999891e+00 3.354560000000000208e+00 2.479419999999999957e-01 4.580610000000000070e+00 8.175330000000000652e+00 2.212489999999999846e+00 8.979369999999999408e+00 2.453829999999999956e+00 -1.533909999999999996e-01 7.953750000000000320e+00 2.483260000000000023e+00 6.162029999999999674e+00 1.089119999999999955e+01 6.278719999999999857e+00 9.102550000000000807e+00 7.172710000000000363e+00 2.259380000000000166e+00 6.796009999999999884e+00 9.932579999999999742e+00 1.109539999999999971e+01 2.720320000000000071e+00 9.369300000000000850e+00 9.169359999999999289e+00 2.622180000000000177e+00 1.077439999999999953e+00 5.427330000000000210e-01 4.801009999999999778e+00 1.124959999999999916e+01 2.024210000000000065e+00 6.209229999999999805e+00 4.469240000000000101e+00 3.537119999999999820e+00 9.336510000000000531e+00 6.841630000000000322e+00 1.128040000000000020e+01 3.803990000000000204e+00 1.032100000000000017e+00 9.867789999999999395e+00 6.542290000000000383e+00 5.242230000000000167e+00 1.962109999999999965e-01 6.287230000000000096e+00 6.887470000000000425e+00 2.407770000000000188e+00 2.667440000000000033e+00 1.336440000000000072e+00 3.385470000000000201e+00 6.284309999999999619e+00 1.972539999999999960e+00 7.162679999999999936e+00 1.038610000000000078e+01 2.704239999999999977e+00 3.026310000000000056e+00 8.021399999999999864e+00 7.001669999999999838e+00 6.554109999999999658e+00 2.789429999999999965e-01 5.690419999999999590e+00 4.574540000000000273e-01 6.296570000000000222e-01 1.049019999999999975e+01 5.353069999999999773e+00 9.316380000000000550e+00 5.677600000000000424e-01 9.824920000000000542e+00 7.904069999999999929e+00 3.420519999999999783e+00 1.538780000000000037e+00 1.093979999999999997e+01 1.893189999999999928e+00 7.803230000000000111e+00 7.991170000000000329e+00 3.426569999999999894e+00 9.099500000000000810e+00 8.944559999999999178e+00 4.542580000000000062e+00 3.533549999999999969e+00 1.121720000000000006e+01 1.998220000000000107e+00 5.425779999999999603e+00 4.018030000000000435e+00 6.601049999999999862e+00 1.704590000000000050e+00 2.097170000000000201e+00 7.900949999999999918e+00 1.160299999999999976e+01 7.243650000000000366e-01 1.170609999999999928e+01 2.801320000000000032e+00 2.895680000000000032e+00 6.015769999999999840e+00 4.049509999999999721e+00 5.232199999999999740e+00 8.662459999999999383e+00 7.340180000000000149e+00 5.719249999999999723e+00 1.978059999999999929e+00 1.608559999999999990e-01 1.051179999999999914e+01 1.616689999999999960e+00 1.362099999999999977e-01 6.515010000000000190e+00 1.189729999999999954e+01 9.265909999999999869e+00 4.058239999999999625e+00 9.568789999999999907e+00 -3.171910000000000007e-01 6.642270000000000119e-01 6.571780000000000399e+00 5.564960000000000129e+00 1.270690000000000097e+00 3.896929999999999783e+00 2.681109999999999882e+00 7.650859999999999772e+00 1.308740000000000014e+00 4.883519999999999861e+00 1.035790000000000077e+01 9.283920000000000172e+00 4.195429999999999993e+00 9.730420000000000513e+00 1.169870000000000054e+01 6.347730000000000317e+00 8.519649999999999723e-01 -1.335399999999999955e-02 9.831170000000000186e+00 1.566030000000000033e+00 2.619839999999999947e+00 5.808550000000000324e+00 6.103390000000000093e+00 7.198629999999999640e+00 1.005719999999999992e+01 2.924960000000000004e+00 5.186119999999999841e+00 9.883190000000000808e+00 1.691640000000000033e+00 1.914290000000000047e+00 8.271760000000000446e+00 6.230139999999999567e+00 9.768599999999999284e+00 3.558850000000000069e+00 8.210350000000000037e+00 9.220119999999999649e+00 7.525590000000000224e+00 1.170889999999999986e+01 1.021589999999999954e+01 6.059780000000000166e-01 1.199519999999999920e+00 3.038219999999999921e+00 1.091239999999999988e+01 4.682409999999999961e+00 2.391690000000000094e+00 4.553239999999999732e+00 1.062190000000000012e+01 4.548320000000000363e+00 1.095199999999999996e+01 5.702280000000000015e+00 6.929310000000000080e+00 4.832910000000000039e+00 5.593060000000000365e+00 4.173250000000000348e+00 8.658020000000000493e+00 3.293699999999999961e-01 7.672760000000000247e+00 9.468159999999999243e+00 3.063569999999999904e+00 8.908170000000000144e+00 5.851320000000000299e+00 9.674590000000000245e+00 4.168540000000000134e+00 6.798720000000000319e+00 1.131160000000000032e+01 9.644080000000000652e+00 7.547830000000000261e+00 3.807869999999999866e+00 5.599510000000000431e+00 6.961520000000000152e+00 9.539630000000000720e+00 9.571780000000000399e+00 1.096080000000000076e+01 8.282550000000000523e+00 1.131049999999999933e+01 2.776299999999999990e+00