-1.049216116755627445e+04
-1.049347678208385514e+04
-1.049591961171186449e+04
-1.049292458369293854e+04
-1.049399034036175181e+04
-1.049557731389241053e+04
-1.049088952699205765e+04
-1.049566512473454168e+04
-1.049257314309942012e+04
-1.049962505875755414e+04
-1.049488906748986665e+04
-1.049282212082342994e+04
-1.049645008587561279e+04
-1.049576102029101457e+04
-1.049754069888722188e+04
-1.049436248959389741e+04
-1.049638403492915495e+04
-1.049344342452957608e+04
-1.049012611385179298e+04
-1.049115972978286482e+04
-1.049589747672106932e+04
-1.049323007873597999e+04
-1.049417771128922868e+04
-1.049418977652845206e+04
-1.049082035030492079e+04
-1.049534802485875116e+04
-1.049754300076929394e+04
-1.049633288992550297e+04
-1.049415308252779687e+04
-1.049449229016211939e+04
-1.049524952481456603e+04
-1.049748928010161399e+04
-1.049613618338172637e+04
-1.049809583904616375e+04
-1.049901396091840252e+04
-1.049442974624505405e+04
-1.049426125057890749e+04
-1.049822247384381444e+04
-1.049784710604312386e+04
-1.050126781160668361e+04
-1.049580660598184295e+04
-1.049862714465676436e+04
-1.049573024525592700e+04
-1.049465615729606179e+04
-1.049478231571286597e+04
-1.049698540086770845e+04
-1.049632993819053991e+04
-1.049893923155248376e+04
-1.049798057277617045e+04
-1.049462281446321686e+04
-1.049698740302864462e+04
-1.049034908189649832e+04
-1.049857138845989539e+04
-1.049469260124229004e+04
-1.049177742141533054e+04
-1.049562363452772661e+04
-1.049402924653901573e+04
-1.049560662584165402e+04
-1.049638617390077707e+04
-1.049499349100072686e+04
-1.049392986430457495e+04
-1.050131480988622570e+04
-1.049571780684557234e+04
-1.049899267179671369e+04
-1.049280542390433038e+04
-1.049764037942945106e+04
-1.049519688383416178e+04
-1.049345230437308419e+04
-1.049682537200342267e+04
-1.049533167868663259e+04
-1.049612428936795732e+04
-1.049458665781799391e+04
-1.049441011592638461e+04
-1.049353339569813397e+04
-1.049137138621632403e+04
-1.049698992238344181e+04
-1.049782179497292236e+04
-1.049320575553687922e+04
-1.049929293605781641e+04
-1.049944886426923040e+04
-1.049564638491658116e+04
-1.049361034637909506e+04
-1.049237609903190605e+04
-1.049500642281240107e+04
-1.049686908537770069e+04
-1.049528174403235062e+04
-1.049441854221219000e+04
-1.049448553555073158e+04
-1.049477549444707802e+04
-1.049711100963686840e+04
-1.049384943557791303e+04
-1.049740660606969868e+04
-1.049534708191457685e+04
-1.049377742204527385e+04
-1.049752875171051710e+04
-1.049581789386731180e+04
-1.049085797607526547e+04
-1.049618730486953609e+04
-1.049265966070226386e+04
-1.049902894852163809e+04
-1.049561951863831746e+04
-1.049732951934919947e+04
-1.049296978741227394e+04
-1.048988588402356072e+04
-1.049963246021605119e+04
-1.049619989933724173e+04
-1.049720460714087130e+04
-1.049553101754248564e+04
-1.049153028647378596e+04
-1.049441468345533576e+04
-1.049262974215539180e+04
-1.049129330275058237e+04
-1.049663087496399203e+04
-1.049147940445939821e+04
-1.049599948957307424e+04
-1.049402701723653990e+04
-1.049580519562076006e+04
-1.049664445333817821e+04
-1.049528019202057476e+04
-1.049200773010231933e+04
-1.049653482285649443e+04
-1.049866763391315362e+04
-1.049703273990159323e+04
-1.049437024075299269e+04
-1.049457194549099040e+04
-1.049445999359604502e+04
-1.049552527906516661e+04
-1.049380185965951387e+04
-1.049763577813229494e+04
-1.049366875965311738e+04
-1.049356076135431249e+04
-1.049484934358820828e+04
-1.049860009153093779e+04
-1.049511191952129047e+04
-1.049912403643871767e+04
-1.049257170158591362e+04
-1.049358147975060456e+04
-1.049679193821533045e+04
-1.049743726668728596e+04
-1.049299998323450927e+04
-1.049606460662399877e+04
-1.049376436848954836e+04
-1.049656194198336016e+04
-1.049552579455506566e+04
-1.049849975127435391e+04
-1.049693385526905149e+04
-1.049139100217352643e+04
-1.049358496125694910e+04
-1.049878566114681234e+04
-1.048948084751003444e+04
-1.049838531725599387e+04
-1.049866997247364998e+04
-1.049476436664117500e+04
-1.049479403557805017e+04
-1.049533029245245598e+04
-1.049270698324305522e+04
-1.049536351608583936e+04
-1.049253189203999500e+04
-1.049094948555118935e+04
-1.049628062572062845e+04
-1.049444658926720876e+04
-1.049620780358208685e+04
-1.049268686091236668e+04
-1.049519280610719034e+04
-1.049446656161799729e+04
-1.049589943875401332e+04
-1.049827961516834148e+04
-1.049502987130215115e+04
-1.049368340056537272e+04
-1.049626058146583091e+04
-1.049373585899299906e+04
-1.049149678825999581e+04
-1.049400523361256819e+04
-1.049305006797653186e+04
-1.049543377512573352e+04
-1.049525866062753448e+04
-1.049867730275602116e+04
-1.050137202976831941e+04
-1.049248551133254296e+04
-1.049080393391373764e+04
-1.049549623199435882e+04
-1.049489978835520014e+04
-1.049626230991420016e+04
-1.049826361603055921e+04
-1.049454363966070741e+04
-1.049683269097401717e+04
-1.049520537796179269e+04
-1.049790416353838555e+04
-1.048996978578296694e+04
-1.049569091093683164e+04
-1.049382593202255703e+04
-1.049575419970594339e+04
-1.049450144460679803e+04
-1.049562125403573555e+04
-1.049859800758849815e+04
-1.049069207913223909e+04
-1.049805752408400076e+04
-1.049623372510014087e+04
-1.049588693456665169e+04
-1.049533909138255149e+04
