1.550207569123380980e+00 2.056631587760332280e+00 5.861354156636584545e-01 -5.283241611271162208e-01 -8.600494334000717833e-01 -8.013208092562963403e-01 -3.807114723255652367e-01 3.925082078410005448e-01 -5.218465238276114304e-01 4.720735662082604089e-01 1.704219733688394078e-01 1.861509540560865317e-01 -1.410255225074606156e-01 1.437064117716479794e+00 -5.284527162850805038e-01 -1.679146849899670668e+00 -4.359527035661485250e+00 -7.675082316085281020e-01 -3.018079159115055199e-01 -5.991148586323652436e-01 7.993297469697453472e-01 -7.030424478751223089e-03 2.596459378642724802e-01 -7.247980943677353460e-01 1.085596886945263462e+00 -1.718905874934234801e-01 1.514235779042444607e-01 2.065641247451101670e+00 -1.938121729839369145e+00 4.759821572310066751e-01 4.703581261803849167e-01 -1.584445407233694869e+00 1.145425943241213496e+00 5.856659322267727674e-01 4.151719679694734766e-01 -1.513963242107559948e-01 9.032851041266226622e-02 -3.959293177047462642e-02 -2.328792113142112430e-01 -1.003848147775138200e+00 7.703019923014081671e-01 1.378414683550010233e-01 2.189764337789416704e+00 -9.341640530696457834e-01 6.460520437332136545e+00 7.150700684542614372e-02 2.152167610511811907e-02 1.483140857434041282e-01 5.943830003780156135e-01 -2.088692215715362566e-01 1.291619383098838517e-02 9.069772082633571764e-02 1.170145557455851248e+00 -1.580873116504183162e+00 -6.903607386522606637e-01 5.013939124161242988e-01 1.776781407049759176e+00 4.818417013310191677e-01 -1.881780117868674940e-01 -6.303583900033751242e-01 1.691013519421038502e+00 8.812990867909374915e-01 -2.002745379306755391e-01 -2.350192433178112328e+00 -6.225849167115901084e-01 -1.476661163252009246e+00 -1.912018347904403726e+00 -7.650718542547889633e-01 9.005371090699778591e-01 1.628470406630146528e+00 -2.202280982189452008e+00 -5.091195631891464179e-01 -9.484727563717032517e-01 9.814101305040506817e-01 -7.655691056057948307e-01 -7.973813649956384975e-02 2.398798109963147518e-01 4.842641947276982162e-01 6.377122592595644290e-01 1.432592969322481757e-01 5.333095301529714449e-01 -1.297373511969320159e+00 -1.634978382946930875e+00 -6.294831864879540939e-02 -5.218064146183265528e-01 2.698402590467145146e+00 -2.121725749105867267e-02 -1.738053394382068406e+00 -6.145831294592607463e-01 -1.091741823495956734e-02 -5.103650055595044810e-01 2.923190025918451576e-02 7.765657138180603880e-01 -6.840024005393467998e-01 4.762855474038024672e-01 8.945793488292806683e-02 7.378191892076225999e-02 -2.895668937701456058e-01 -8.087384418708358780e-01 -6.376248417521487299e-01 -7.504181089087551548e-01 -1.275983990566589510e+00 -1.301816378228566329e-01 -4.161243045796729212e-01 8.328019105592240345e-01 -1.365530885618828627e+00 -2.256965775284303088e-01 -9.515961324896037021e-02 -1.568285509656951460e-01 -3.722540855934103332e-01 5.151873666450610539e-02 5.079368557358749925e-01 3.251365633169697039e-02 3.422086882946278052e-01 5.866141550719174980e-01 -5.994784126190881857e-01 -1.247365555521210423e-01 -3.267041134911230937e+00 -8.311486912278033268e-01 -6.961103938032452199e+00 -2.037085033102177534e-02 -8.626462475909504879e-02 1.182945537424039850e+00 -1.027899789388993401e+00 9.984724852897033931e-02 6.414110482645131173e-01 8.197453344957386090e-01 -4.619830147493271255e-01 -4.839494917010017661e-01 1.425311605175384189e-01 1.862810518759464018e-01 7.116880393585368614e-01 1.745175864353922357e+00 3.109260761555969199e-01 -1.671679852104472619e-01 1.094956730886327723e+00 4.809572418442247810e-01 1.319555961586374782e+00 -1.290256698424417092e-01 3.892516485794491055e-01 7.275754000003958888e-01 -3.383931712062475394e-02 2.063526257992272794e-01 -4.389109634391596404e-01 7.698427932771597648e-01 -7.217647068604099436e-01 -5.545632973088919782e-01 -6.311081236846228792e-01 -1.794150751552630929e+00 3.533431076362310574e-01 -1.051708718864612147e+00 -7.462344098479651855e-01 1.507175529767045274e+00 1.680776929302657763e+00 2.933918210960888118e+00 3.933762122675754092e-01 -1.603797586493007632e-01 4.635537016693349166e+00 2.784103629413724690e+00 1.417860548219773698e-02 -1.959196033994771435e-01 7.013727734834820371e-01 2.109875534644718886e+00 2.053582773634051062e+00 -1.538465855215554123e+00 -6.515735906119062282e-01 1.365203327076335960e+00 -3.188142206482858509e-01 -5.546023780769130385e-01 -1.186070970424467852e+00 2.612652186339907145e-01 -1.062152025676999623e+00 -5.345817119961859820e-01 1.119800786493875044e+00 2.295984836829625120e-01 5.684709085181010035e-01 -1.166429284949419332e+00 -7.229736395659061565e-02 -1.251565709642219693e+00 -1.440865236627167700e+00 -1.816988318254671442e-01 7.390918852714690734e-01 -5.447226570770413723e-01 6.000389131078126548e-02 2.053925758795499823e-01 5.369245011949272950e-01 1.043809775738654189e+00 1.168613179972916694e+00 -1.146924382162445077e+00 1.324664229343244015e+00 -8.341887636033429310e-01 -2.079938123678626294e+00
4.771946894809259154e-01 -2.900919130352717645e-01 -4.264606535006338350e-01 -5.159854370657033229e-01 1.139858990680727713e+00 2.388077124009557295e+00 -4.848576053368615080e-01 1.383385654398173514e+00 5.870414724169907839e-01 2.160559691223720435e-01 -1.943795126070649582e-01 -1.070905089272472299e+00 -3.999268688968038998e-01 4.852844084613028852e-01 1.616236583577632668e-01 -2.596083997581469238e-01 8.943201816308247176e-01 -1.405898747881512145e+00 3.686036333278562560e-02 4.459064209149445762e-02 -7.332071443604956107e-01 -5.242571901497578013e-01 4.475904934842768190e-01 -1.285882737729840075e+00 -1.022838829930255322e+00 -1.092631939409701491e+00 -7.526842792333496845e-01 -9.288161584983312125e-02 -4.993281852938276977e+00 -1.268068078159780177e+00 -1.525515208602231221e+00 -4.791456425581920864e-01 2.460731357084656512e+00 3.141669002658134868e+00 -7.397901968895310709e-01 -1.773012169818246331e-01 2.107034465653708111e+00 2.621239670891921669e-01 4.795909576253802875e-01 -1.475422919970497126e+00 3.912164856137753111e-01 2.819111770030560682e-01 -2.821929699093138622e-01 -2.732043932644505069e-01 -3.658427827554151524e-01 -6.527676109190786446e-01 4.445745894784345481e-02 -3.964419956747078921e-01 1.792125750704377241e-01 2.034555067593439848e+00 8.880554316729089015e-01 1.187793095320557324e+00 6.458626562745005684e-01 2.061561935178578553e-01 -1.437240495393206530e+00 -1.697771921185537547e+00 5.781711665174545933e-01 -3.172401912941710256e-01 -1.840087109037695512e-01 -1.958033895366774468e-01 -1.607542141134191471e+00 -7.791219045790223063e-01 -2.896758571220361400e+00 -1.443436339786453804e+00 -1.125636162224190162e+00 -1.717949938779612218e+00 3.119277779464546541e-01 -1.628599990229374628e+00 -1.766119042248201154e+00 1.587141980227153859e-01 -4.088377982262568211e-01 -9.008070749017029755e-01 1.008290499813752295e+00 -4.437991447655938448e-01 -5.813171683431567205e-01 -1.629736417825778716e+00 5.590251897315166030e-01 5.203583693190168002e-01 4.201362539494225556e-01 1.555840856145376261e+00 3.987379907959501812e-01 7.392358670483890615e-01 -1.520951500494499009e-01 -1.414596789869376092e+00 2.004614571303556136e+00 1.355231560583361361e+00 1.280072558810485761e+00 1.419947769764481782e+00 2.382740542292143715e+00 1.656800878121685638e+00 4.226945015929119143e-02 -5.346300487355806069e-02 5.596571668880690603e-02 -3.186698789169235102e+00 4.285514745897651620e-03 1.541964612394710388e+00 9.974743830432687419e-01 -4.157988029197072326e-03 -3.628340778384189086e-02 9.240920135534592683e-01 -1.246203416893213234e+00 8.497660492041920755e-01 -1.522967245371379175e+00 -6.481375683498367124e-01 -3.880972232609297135e-01 2.242197358737364754e-01 7.553412572381557055e-01 1.103435714885020680e+00 -2.207384621960634674e-01 -1.533231089183248186e-01 -1.227835970143907218e+00 1.214911548782809048e+00 -2.720335643077748777e+00 -1.692994297294952155e-01 2.046202164905005227e-01 7.372072666557125675e-01 -9.091539041980085667e-01 1.079618557879292062e+00 9.841648104289094645e-01 2.187684829554186194e+00 3.368145138664460354e-04 -3.761235958481355390e-01 -1.660932640898657767e-04 5.426827438304639983e-01 -3.644903824936308046e-01 1.562807003045145304e+00 -2.074047212120070371e-01 3.705345318004800159e-01 3.510070033057039601e-02 1.385901221729218813e+00 9.050684212779033233e-01 1.166673025528919716e+00 1.557685365551847667e+00 -3.671422182921182387e-01 -2.321243354266449288e-01 5.312824724221904688e-02 -3.845933238754550287e-01 -1.913631972247171520e+00 2.970981691443256856e-01 -5.674296117385900784e-01 4.237681942722297812e-01 -3.991673650235508797e-01 8.129103138570932252e-01 -1.137610303857616162e-01 4.755306715162361253e-01 -6.573539447346127274e-02 -3.478877409528583486e-01 3.046145835422451320e+00 -1.630911411969572233e+00 -1.921153477429346834e+00 1.210348869116340209e+00 5.894752786675707679e-01 1.440742337896154135e+00 -4.155314081911415935e-01 -4.909470060593140728e-01 1.895569458332556856e+00 -2.263637273762018065e+00 -1.927785895139040084e+00 -1.757971216336424058e+00 -1.072783537240646456e+00 -2.204412426708500169e-02 4.458190034075288910e-01 -1.964050276759503610e-01 1.898374017658705781e-01 -1.064786377974003967e-01 7.166914061065071673e-01 -5.338299214324108144e-01 4.911974315070284924e-01 -1.874884419195470275e-01 -3.437220396141834056e-01 -2.788392229483412921e-01 -5.113705125830380283e+00 3.703667416083050057e+00 1.020104718830670665e+00 2.316769634769291486e-01 -8.019533006334805814e-01 -5.861040482051151912e-01 3.389582996806586035e+00 1.711379741766373419e+00 -1.532037068876076047e+00 -2.205644499342430009e+00 3.245260805828289463e+00 1.340680145143067437e+00 6.682281684364962393e-01 -2.304351206509941130e-01 1.219522565188672303e+00 -1.108942503631579063e-01 -2.415263454595213966e-01 5.643807976123089709e-01 -8.972712938370530633e-01 2.085524616623122759e-02 -3.560525361454864868e-01
1.771814549966650887e+00 -2.353788378056689279e-01 -1.302913210836317504e+00 8.095385691740057954e-01 4.535899055961544191e-01 9.192094886539754484e-01 3.997551192057636517e-03 -4.685115598913857649e-01 -2.220965188847982552e-01 -1.265306713366707303e+00 -1.256472402911401054e-01 3.310330284583495430e+00 -1.108438567412359133e+00 -6.459223058677959761e-01 -5.088120592512958007e-01 -5.177152752712709249e-01 1.898435724134528435e-01 3.362097904033820583e-01 5.115302295112928999e-01 -1.476776862894177089e+00 -3.211786071135651066e-01 1.312769277687123870e-01 1.204469270411685639e-01 -5.625136624980355826e-01 -3.384152826934174185e-01 -9.683838934578445912e-01 1.554247286407250683e-01 6.466540418269287605e-01 7.266194638457734722e-01 2.590509845932137400e-01 -4.091715274163321148e-01 -1.957230682739813377e+00 7.375157990348268910e-02 -1.966708797426204858e-01 5.398802413868423328e-03 6.638372384610680133e-01 2.536911601032401098e+00 8.097293450284248628e-01 -1.781690671422099692e+00 1.134929157483113071e+00 5.835370588108842460e-01 -2.077255948862859469e+00 -1.053802625277534682e-01 -3.925328904313296619e-01 -2.167892477434003873e-01 -1.438991416644680443e+00 -7.148993472044848918e-01 1.036065098802253504e+00 -9.686769992180033206e-01 1.161680457414218548e+00 1.329327182032924715e-01 -4.510563405429941497e-01 2.246326550411177903e-01 3.225700881433706257e-01 8.177589001948745162e-01 -1.257444279905610918e+00 2.039910161253600585e+00 7.803493492272655097e-01 -1.756670238137825746e-01 -1.020527922410689126e+00 -4.182084408005899978e-01 1.614863614490573973e-01 -1.990433908938830765e+00 1.481163679104550601e+00 2.908670492157332976e+00 -5.066320723046005448e+00 -9.493901259789364055e-02 -2.317489543653891704e-02 -3.520457289820554808e-02 -3.113996733575373765e-01 2.968132909142768075e-02 5.228543962660514577e-02 -7.416912705655070992e-02 5.802517031939487258e-02 7.704176919435760107e-01 -6.352064621205244510e-01 -1.952907115667158744e-02 4.568737185511942966e-01 1.269744437419634553e-01 -4.312737586148169822e-01 -4.147868167162124253e-01 -1.372619417028979882e-01 5.759872714939571203e-01 -3.140273922083906655e+00 -3.993447711415415990e-01 -4.234092682711933925e-02 1.191064566980432726e+00 -8.389612452876092918e-01 -1.626906661688668765e-01 -2.346825830701343707e-01 2.897088186645381813e-01 2.812293204452134265e-01 5.054367150237853989e-01 5.398833267106334377e-01 -4.137264937733228787e-02 -2.662876115453396975e-01 -1.399785178789362261e+00 -1.237289402239969194e+00 4.154842027371370428e+00 6.309091203000940506e-01 1.268687714021168089e+00 1.856974114587884861e-01 4.937155699412331122e-01 -3.632665373898107397e-01 8.688539190587303285e-01 4.288600069688793849e-03 7.829322794610840131e-01 6.833858500017500059e-01 2.654278346488744833e-01 -1.483382541131014198e-01 1.659091731036609063e-01 -1.494381206225807057e+00 2.629600898365919703e-01 3.122726657242412163e+00 5.690514636114676339e-01 8.406592018140016664e-01 -6.241352919166395785e-02 4.708229816315838145e-01 -7.214705726589876189e-01 -3.508702206176299021e-01 2.332119120630228304e-01 -9.174878779785176908e-02 1.524227085919429014e-01 1.573648830847221847e-01 -1.212146584445312980e+00 7.505631191269388491e-01 -1.387596607152451700e+00 1.213526238400585822e+00 5.185508837980387087e-01 -3.727569933713666406e-01 9.010636709969997715e-02 1.807161561979881148e-01 5.290533259830896284e-01 -4.432463575863475058e-01 3.978525028678920883e-01 -6.973361415234031746e-01 -7.721228475588144402e-01 -1.540978851443440156e+00 1.256811788528426677e+00 3.266180329573502572e-01 -1.276717269187617743e-01 1.492300669549313064e+00 1.801530846061044910e-01 -9.142889114277341633e-01 -2.089928402114347605e+00 -5.975500852496238302e-01 1.707733403265874195e+00 -2.074985664773209670e+00 7.714949841673167663e-01 3.519361999874698332e-01 3.740996234411457233e-01 -2.645762852825190303e-01 -4.339759880352263566e-01 -3.367934308205399185e-01 -6.242875012236693832e-01 1.856824990604646342e-01 -5.814477803836485270e-01 -1.921501604797113627e+00 -1.840478430938539134e+00 8.229566423416868615e-01 3.069948594250487828e-01 -7.720148612261243937e-01 -6.764958077554958926e-01 6.444830023192278656e-02 2.914756807555994311e-01 3.981034425362383611e-01 9.955188019803157262e-01 -3.917605310422802023e-01 5.778117262957864764e-01 8.981588386476385688e-01 -1.287711306296724159e-02 4.634444297850652261e-01 -4.839788022770175058e-01 -1.181565883468767009e-01 2.674970584714677080e-01 4.335126752459231292e-01 -1.235652637968768008e+00 1.205750194005641651e+00 1.570393300026934114e+00 1.683747067672265008e+00 2.068899349374548446e+00 1.129980812342751273e+00 -9.505111269563851772e-01 -2.315643491585524238e-01 -6.455834344714022066e-01 -5.714215065036973851e-01 -3.031207211846368432e-01 -4.060476370777998389e-01 3.274824378395021496e-01 -2.509422908715212230e+00 -3.553943337367093114e-01 5.288702634381484691e-01
9.372318933593055679e-01 7.274468448424317168e-01 4.790973058187975586e-01 5.605156068108914980e+00 -2.509127746072526310e+00 -5.066007048460572371e+00 -8.249106807427439847e-01 5.241836565994021369e-01 -1.075354126179300485e+00 -8.702999074755126685e-01 -2.541056219325169341e+00 -3.137765039621075669e+00 8.413441436956354824e-01 9.991204032858433948e-01 5.370386581751995791e-01 1.175274908258626683e+00 1.750378234486421158e+00 5.874261094496199265e-01 1.954629240563248382e+00 1.846583772500578924e+00 1.780663772820280932e-01 -3.037897222266830455e-01 -9.884652375731309837e-01 -9.786338533126535955e-02 1.923067406621119080e+00 1.054219143989339136e+00 -3.876272256034122843e-01 -1.192853026338031919e+00 9.940933823888077336e-01 -1.716497265494615787e+00 1.584052542670955965e+00 -2.176882082520131156e+00 4.204410325179242847e+00 -1.333497511357286669e-01 -4.232683718180645926e-01 -6.878297447022597710e-01 1.165830217913305766e+00 -2.866461205811969282e-01 3.638578911164465080e-01 -2.876788298761556284e+00 -2.682123393703810255e-01 -9.977212089465600231e-01 -2.514394908004639051e-01 2.354833788601255140e+00 -1.712205065880504362e+00 -1.423451669149956800e+00 -1.380691652507873624e+00 9.843314179136310182e-02 -2.020439711248960823e-01 1.160222127702271511e+00 1.054066420461677422e+00 3.872870172333755523e+00 -3.576757764140700679e+00 -4.185953404039993941e+00 1.018527604152764665e+00 9.434097400304375380e-02 3.265268102172588005e+00 1.357797521536328933e+00 -1.936360524175258391e+00 -2.033808419235983322e+00 -3.790212291086506591e-01 -4.899484410143107205e+00 2.168209751563860088e+00 1.130640043192792321e+00 -1.052640486649537577e+00 -1.187612603878775541e+00 4.729919642567572691e-01 -3.327603984048841390e-01 6.224651033043674397e-01 3.517598223107428757e-01 -1.099823314946223984e+00 8.227720371348500317e-01 -1.062367484121747641e+00 -3.557738285630198671e-01 -1.208848373312580993e+00 6.526344277754276835e-01 -6.367187849988162895e-01 4.491413829099580313e-01 -7.825748961219433086e-01 -3.505987121240093374e-01 1.900968260746425109e+00 -1.016626016256156895e+00 8.234029858501389354e-01 -5.865987284529617929e-01 6.573981677089524300e-01 -8.224012840592810347e-01 -9.212416885910749975e-02 4.714086789312690873e-01 -1.484946800293123648e+00 1.268886717405696807e+00 -7.947536975668484382e-02 6.660082779687688526e-02 -4.729904215948617652e-01 1.711775177432271811e+00 8.974137329520774919e-01 1.482339187468975972e+00 -3.388832234684074907e-01 -1.531328472845376598e-01 2.091939004784908906e+00 1.513444393490016138e+00 -1.466756759661808074e+00 2.954695809811708873e+00 -4.791137608790169145e-01 -1.306248960075175047e-01 3.834455834251497830e-01 -2.226603618076296698e+00 3.169686828005504609e-01 1.626461860842112417e+00 -1.630922724823473113e-01 6.312284513124774010e-01 2.319356164547533294e-01 -5.725918726618042243e-01 -3.643757112927266673e-01 1.961618013170818853e-01 -6.532622911669252463e-01 1.876312924110769220e+00 2.146264357658091426e-01 1.675097876644427330e+00 2.123001016272872965e-01 4.435949991747465959e-01 1.213447562643911737e-01 -1.892373062884932511e-01 -1.736008853149804618e-02 7.587068312736608422e-02 1.236158116849883637e+00 4.860809362200496642e-01 -5.808589977601720244e-01 1.758722492679567706e+00 -5.082333553522038194e+00 -7.307697385654926547e-01 -4.854345608858051664e-02 7.238956371588259886e-01 4.283334450418577188e-01 3.321263643658042275e-01 -8.392358391050210864e-01 -1.807752915706516694e-01 -4.578173134106522379e-01 9.579724683246326755e-02 -1.535197468879470062e+00 4.137429488335422900e-01 -8.667965223106698369e-01 -1.794640289594158777e-01 -1.063495684188042328e-01 -6.785809724176766755e-01 4.375143402030356315e-02 6.469296640856042613e-01 -5.920155285889451280e-01 -1.278172513575773495e-01 1.035178068212300184e+00 1.811743267809728386e-01 1.563667808382873947e-01 -4.383016119904089014e-01 5.278222817904234532e-01 3.383299220685291320e-01 2.243153809112619357e-01 2.046592972585216386e-01 1.870868356060665649e-01 1.488797284384469899e-01 1.055793687564085648e+00 -2.706883117127733551e-01 -1.008839173227943919e-01 -1.562049556054419641e+00 8.610655333686214608e-01 -4.044432687064054011e-01 -8.037777554353099374e-01 -6.883943589560389542e-01 1.173978558045714715e+00 -1.022846543239733230e-01 2.048197340956610657e-01 -7.139284986515385123e-01 1.554823213514930635e-01 -7.480066198335976857e+00 2.757714855028078560e+00 2.395133773740533378e+00 -5.222373315078228384e-02 -1.838282194619876575e-01 -6.377117450389324649e-01 1.216137450769156247e+00 -6.154213090891879068e-01 -1.577444807551591222e+00 -6.940384446113031514e-01 -1.585453793892766639e+00 7.059837898893452923e-01 9.650635708379429190e-02 -2.306942878494501470e-01 -1.520817803130216361e-01 -3.231148534807601003e+00 7.756807915326972669e+00 3.386217422771081065e+00 -2.218212051585019218e+00 4.987384770732139483e-01 1.552020711071309435e-02
5.061458252751163123e-01 -6.072122909222201770e-01 3.048747277599017091e-01 -4.371394733624117124e-01 -1.895077863408501373e-01 -4.643258039480683830e-01 1.453126313373169998e+00 1.298661120431490623e+00 -1.710777075185836882e+00 -3.130940303395066682e-01 -1.120542806865644891e+00 -9.666766809600789712e-01 2.544877907061132444e-03 -7.386753665596648144e-01 -1.842807336180219968e-01 -3.206273625962142160e-01 4.935031968202761576e-01 -2.414903500152913995e-01 1.553517093110013403e-01 7.250732024057789937e-01 -3.823496249924725809e+00 6.134837257483501949e-01 -1.943430029422031080e-01 -4.878966492711372949e-01 -7.952370649607941322e-02 2.017368785635509809e+00 8.147944182522178780e-01 3.012890672939616543e-01 4.533245677501161475e-01 5.453628617637034104e-01 1.232643418831139703e+00 -1.616310631348619964e+00 -2.749697641156793271e+00 -1.093278314743945989e+00 -2.696953516726571798e-01 -5.784596442919265336e-01 -6.809206762926268974e-02 -1.022846543239733230e-01 1.205430862993258218e-01 2.082871238162739835e-01 6.235691350009647804e-01 -4.727415388090428494e-01 4.535909340374180698e-01 -1.065033718097927240e+00 1.519027801110721221e+00 9.388486030258645643e-02 -7.191699495520585961e-01 -1.948633942216425607e-01 -5.170462742292247782e-01 -4.489459790698522856e-01 -1.003295874816523617e-02 -8.075217958558618403e-02 2.100986202581804019e+00 1.159377263204130148e+00 5.716883870116312716e-01 -4.117847966674302307e-01 2.187854522362699464e-02 1.304701155973284898e-01 2.524802733593428106e-01 2.606131868727957768e-01 -7.125442167105789926e-01 -2.449119740996689998e-01 -7.671127959426299325e-01 3.388209513498895653e+00 2.231146243138122376e+00 2.290672937702540768e+00 -1.947781878629438079e+00 -1.264780665660317327e+00 1.135099364512257569e+00 1.818438420436508871e-02 -1.010366408504559804e-01 7.393618511031940788e-02 -3.378892349870275813e-02 4.390703718350353890e-01 -1.799576807659988009e-01 -6.236200428435186849e-01 -2.266442347308798677e+00 -1.238364637581182759e+00 2.606512391995532418e-01 -3.879203313635708472e-01 1.802137626406636328e-01 -1.017179831876667162e+00 1.647578331089327053e+00 -1.043602544824016043e+00 2.805721464777000129e-01 8.355437349682866000e-01 2.228441956835185700e-01 -1.314321709774700864e+00 9.054633427231695286e-01 9.044523849609384381e-02 6.259762017786882904e-01 -1.226032084167352210e+00 -8.155621496555807148e-01 7.616646283481033342e-01 -1.064194510026736484e+00 7.727311705663014729e-01 -1.891481404309292236e+00 -8.674007315531018225e-01 1.287272161877118126e+00 -5.660808110212288691e-01 -1.365307199643971126e-01 1.292929103048178874e+00 4.759194223139201485e-01 8.129473377425869840e-01 4.759672448326828231e-01 3.920407812866423813e-01 -2.807773205098110236e-01 -8.236323282519469879e-01 1.816592368368141475e-01 7.574449338430833123e-01 1.145112268655780641e+00 -5.673807607785636975e-01 -1.510927283497075502e+00 -1.640631210352936631e-01 1.134422135940101883e+00 -7.171567757783378072e-01 2.125032187768708669e-01 3.733879420866554333e-01 4.254507241796664369e-02 -7.545359877286672567e-01 -1.612116133654560857e+00 -3.803690013847483287e-01 1.145063931916386002e+00 -5.606655535471409824e-01 2.842791630127583513e-01 -1.137441125269735398e+00 1.531081646942085150e-01 1.503997646262167920e-01 2.314424788688023149e-01 1.107705288791330567e+00 -7.579355003258750334e-02 -4.902769765760042198e-01 8.166157877302560042e-01 4.869607677211572616e-01 6.774810544861341599e-01 -4.838235076461966377e-01 -2.607828796813086991e-01 1.544147993197575730e-01 7.400663333688384249e-03 -6.401357810975072393e-01 -8.719639254402024309e-02 7.372041813319214487e-01 2.121545771884717213e-01 -1.198642636432111885e+00 8.306159586531992600e-01 -2.577633761310433799e-02 -1.388431701458588130e-01 -6.444212958434048649e-03 6.011491154519921221e-01 7.830351235874554172e-01 9.770140583223035913e-02 4.849090274000471545e-01 2.862033766171678817e-01 5.630016578776680936e-01 5.184644947318867159e-01 -4.904687808716869102e-02 5.252157488296027132e+00 1.239171963973198398e+00 4.269166129349016181e+00 -4.882861713997691311e+00 -5.130014147390362655e-01 -1.534377801192289725e+00 -1.031815065279954036e+00 1.288381335780033776e+00 1.174231040375956603e+00 -1.816984718710248581e+00 1.825720813024870104e+00 2.492088531215307157e+00 6.469862283551084392e-01 -1.878578580214732341e+00 3.116017620658572129e-01 -6.517180866094581804e-01 -6.811777866085554078e-02 -8.717217275225975781e-01 -4.931941502205299671e-02 -7.439013908412291931e-01 2.683208399237029806e-01 1.289253968192295430e-01 -9.312432798806968837e-02 -9.278530232548626300e-01 3.318188604279536658e-01 3.318502278864969846e-01 1.068498536715380753e+00 -4.922855223640383859e-01 -3.263300694035102256e-01 -4.295773447503202225e-01 -4.802748710657503972e-01 -2.011440850191460461e-01 -5.896696540664128072e-01 -6.365778885456874203e-01 -3.014376770565683761e-01 -1.661284367810848206e+00
5.022392911348975975e-02 -4.659661677636928179e-02 7.522842155817648091e-02 8.686240624362899787e-01 -1.195048748436062125e+00 -4.799411418756751591e-01 -6.837067236760290267e-01 -1.122543639344201205e-01 4.525450092722206608e-02 1.960090263673571531e+00 -3.654761434449009805e-01 6.156033431928653599e-01 -5.035089018749528966e-01 1.085518725409221119e+00 -3.513433035989385056e-01 4.471395219901381224e-01 1.245596636547621761e-01 1.487275191314172962e-01 3.299918345229651551e-01 3.589234299331450773e-01 -6.749505747567651204e-01 -1.744421502686987757e-01 8.223981987354899159e-01 8.985902697577666243e-02 -1.009914408569157152e+00 2.299332413143015119e-01 -8.456857084904055855e-01 5.500978053418443398e-02 -5.161741560375949778e-01 6.165459096110595949e-01 -3.277899417773527668e-01 5.081980798168584945e-01 -1.046035836853964174e+00 2.478096073601841476e-01 -8.320655466144047385e-02 1.136268188008468932e-01 -9.333474707062564546e-01 1.037340365969259270e+00 -8.933051101035386354e-01 1.728228694989805692e-01 -5.551027147517102467e-01 -2.863499294972471354e-01 -1.153223584902695498e+00 3.758762557242122382e-01 5.220604396104639999e-01 9.376494405123736442e-01 -4.294693584176301204e-01 5.313956009611990883e-01 3.753111272498012574e-01 5.326981218216932934e-01 -1.152810665735314183e-01 1.794722564895255834e+00 3.763693933101632805e-01 -2.012402442773033151e+00 3.764053887543932220e-01 3.123108723171882373e-01 -9.682784782283139213e-01 -4.178808822580969973e-01 5.256363298843987758e-03 3.443010520456545875e-01 1.141200078088611125e+00 -1.100439351263189147e+00 -3.292277026640253457e-01 1.426962253403645520e-01 -1.944079490080066419e+00 -8.820015121740543140e-01 1.893284261844583538e+00 1.137185043395070316e+00 1.567584112715098232e+00 4.684179717363878281e-01 1.943805410483286783e-02 2.073327303235470709e-01 2.243493194729645132e-02 1.098524393630152668e-01 -7.221400879216656188e-01 -3.197465026538428567e-01 -3.566613733736053726e-01 -8.407425055563626515e-01 -1.192494100336995766e+00 -2.872950670186006500e-03 1.986055834479198978e+00 1.739039155333338638e+00 -4.327989370089053156e-01 -3.892135962526916369e-03 -1.661945141322784369e+00 7.193884933205978438e-01 1.056836527005492021e+00 -1.180427398989835286e+00 -3.289700781274649266e-01 -1.585326267176066173e+00 -1.069737808438156579e+00 3.839921999568139399e-01 -1.370770793857453373e+00 -5.023930431038227118e-01 -1.150991867360435572e+00 1.251762141923589366e+00 -5.889219772676924647e-01 -2.377457953741074770e-01 -4.005932988356908364e-02 1.409689582379563266e-01 -6.589937943296052536e-01 -6.378063616351943299e-01 8.924777291068803908e-01 -3.639607352428179121e-01 2.235140194785757206e+00 1.135296311014259013e-02 -1.686273433636578944e-01 3.763241418945598160e-01 -4.380563287490130131e-01 -3.022331763740513932e-01 1.017546471187181334e+00 6.727034305955492677e-02 2.041826147327900076e-01 -2.956100146357310554e-01 7.399994846866969622e-01 1.234636538000218220e+00 7.053893508389182943e-01 -1.927780752932721775e+00 4.051698624592196124e-02 1.091722797332578043e+00 -6.414470437087430588e-01 -3.919245674238426291e-01 -4.867489088208321601e-01 2.276706705341299819e-01 8.582764006614281849e-01 -3.868569230968902373e-01 -1.604630623916616372e-01 -2.740960518400908374e-01 2.299445541682023919e-01 -3.199388211701574836e-01 3.999721203124073088e-01 -3.964605076174547715e-01 -8.994114801068425757e-01 -3.173059601129855967e+00 1.905399299931138435e+00 1.341103348723085675e+00 1.739228388525862368e+00 -4.005326722231949077e+00 7.845181358897314050e-01 3.048814126281158658e-03 5.299953781806520103e-01 -1.361620237713555004e-01 6.206823003737187427e-01 7.738866243260844602e-01 1.275510907585280851e+00 1.119353414544159264e+00 2.850731196683458091e-01 -2.452570161436452012e-01 -8.794741177684765043e-01 9.091549326392722730e-01 9.896484592470343455e-02 1.782864637124629725e+00 8.151482020469354994e-01 7.911906628087100879e-01 -2.616313437238730333e-01 -2.706343185464283631e-03 6.842260865142046899e-01 1.626798675355978774e-01 2.199874429632360684e+00 1.311731580452036194e+00 5.770136558751440825e-01 8.271285143279439867e-01 -2.339538295906663734e+00 -1.065606559881816073e+00 -1.532282352117471769e+00 8.921810238022989115e-01 -8.140513694391842137e-01 1.640155556268468651e+00 -3.071624953510341816e-01 -3.653532447138871375e-01 -7.746425286549145361e-02 -3.202771783459194832e-02 -3.488231082822065288e-01 -5.685706673206812889e-01 -2.745389500703093510e+00 9.328918712264310242e-01 -1.578780238532524471e+00 -3.160559411790039852e-01 1.545958049821713198e-01 1.633349846205839340e-01 8.526292296823728689e-01 -5.260945004673833747e-01 8.981423835874191575e-01 -7.772794520550780906e-01 -1.552051564309220588e-01 2.566279769759027829e-01 -1.021388727748418157e+00 -2.116377854534552683e-02 -1.040782558878911246e+00 8.916981706289849319e-01 6.584296942964579236e-01 -1.574678814772831670e+00