1.369029999999999969e+00 1.754590000000000094e+00 1.777490000000000014e+00 3.531820000000000181e+00 4.651340000000000252e+00 1.186779999999999946e+00 1.485810000000000075e+00 4.563240000000000407e+00 4.496590000000000309e+00 4.516989999999999839e+00 1.900479999999999947e+00 4.294220000000000148e+00 7.062660000000000160e+00 1.591159999999999908e+00 1.747200000000000086e+00 1.000960000000000072e+01 3.945489999999999942e+00 1.481409999999999894e+00 7.832169999999999632e+00 4.047830000000000261e+00 4.424019999999999619e+00 1.021589999999999954e+01 1.968970000000000109e+00 4.380790000000000184e+00 1.750340000000000007e+00 7.413840000000000430e+00 1.396139999999999937e+00 3.868050000000000210e+00 1.008799999999999919e+01 1.494240000000000013e+00 1.605369999999999964e+00 1.097620000000000040e+01 4.904630000000000045e+00 4.106370000000000076e+00 8.296369999999999578e+00 4.879400000000000404e+00 8.185879999999999157e+00 7.946640000000000370e+00 1.737950000000000106e+00 1.020010000000000083e+01 1.081290000000000084e+01 1.955419999999999936e+00 6.896329999999999849e+00 1.079630000000000045e+01 4.569209999999999994e+00 1.098019999999999996e+01 8.950969999999999871e+00 4.812039999999999651e+00 1.746170000000000000e+00 2.261410000000000142e+00 7.900780000000000136e+00 4.745210000000000150e+00 4.138150000000000439e+00 7.511140000000000150e+00 1.483770000000000033e+00 4.663499999999999979e+00 9.989280000000000825e+00 4.314259999999999984e+00 1.507489999999999997e+00 1.068239999999999945e+01 7.572320000000000384e+00 1.305630000000000068e+00 7.610280000000000378e+00 1.067280000000000051e+01 4.955009999999999692e+00 7.010320000000000107e+00 7.166220000000000034e+00 4.128879999999999661e+00 9.863319999999999865e+00 1.027890000000000015e+01 1.389869999999999939e+00 1.091750000000000043e+01 1.936039999999999983e+00 7.744250000000000078e+00 8.104089999999999350e+00 5.150760000000000005e+00 1.015419999999999945e+01 7.453389999999999738e+00 1.679589999999999916e+00 1.063780000000000037e+01 1.091360000000000063e+01 4.848799999999999777e+00 7.177629999999999733e+00 1.053069999999999951e+01 7.813150000000000261e+00 7.315260000000000318e+00 7.393640000000000434e+00 1.106310000000000038e+01 1.063170000000000037e+01 7.954439999999999955e+00 7.284399999999999764e+00 9.666779999999999262e+00 1.018629999999999924e+01 1.084740000000000038e+01 7.309730000000000061e+00 1.071940000000000026e+01 3.730049999999999866e+00 1.233549999999999924e+00 1.821649999999999991e+00 7.772609999999999797e-01 4.782429999999999737e+00 1.645420000000000105e+00 5.222970000000000113e+00 4.409019999999999939e+00 4.602890000000000370e+00 1.377280000000000060e+00 1.635629999999999917e+00 4.989359999999999573e+00 1.013640000000000008e+01 1.232720000000000038e+00 1.525989999999999958e+00 7.272380000000000067e+00 4.267420000000000435e+00 1.535830000000000028e+00 1.067800000000000082e+01 5.318529999999999980e+00 4.461339999999999861e+00 7.336140000000000327e+00 1.322040000000000104e+00 4.280170000000000030e+00 4.660619999999999763e+00 7.392879999999999896e+00 1.828270000000000062e+00 1.379159999999999942e+00 1.093800000000000061e+01 2.076340000000000074e+00 4.514660000000000117e+00 1.126280000000000037e+01 3.986029999999999962e+00 1.593949999999999978e+00 7.416940000000000310e+00 4.987659999999999982e+00 1.071289999999999942e+01 7.892689999999999984e+00 2.268559999999999910e+00 7.636300000000000310e+00 1.077669999999999995e+01 1.631259999999999932e+00 1.044159999999999933e+01 1.157850000000000001e+01 5.075140000000000207e+00 7.957950000000000301e+00 7.449939999999999785e+00 4.825120000000000076e+00 4.480050000000000310e+00 1.574670000000000014e+00 7.678560000000000052e+00 1.927440000000000042e+00 5.190470000000000361e+00 7.537289999999999601e+00 4.358270000000000088e+00 4.143320000000000114e+00 1.061040000000000028e+01 1.343420000000000059e+00 1.157810000000000006e+00 1.084140000000000015e+01 1.036239999999999917e+01 1.311719999999999997e+00 7.645129999999999981e+00 8.199790000000000134e+00 4.237250000000000405e+00 7.534130000000000216e+00 1.047240000000000038e+01 4.666190000000000282e+00 1.044599999999999973e+01 7.330199999999999605e+00 1.494539999999999980e+00 1.002820000000000000e+01 4.841429999999999900e+00 7.516709999999999781e+00 7.549800000000000288e+00 2.077030000000000154e+00 1.050740000000000052e+01 7.565319999999999823e+00 4.884199999999999875e+00 1.063840000000000074e+01 1.067689999999999984e+01 2.208639999999999937e+00 7.321600000000000108e+00 1.063760000000000083e+01 1.075849999999999973e+01 7.748330000000000162e+00 7.758619999999999628e+00 7.943609999999999616e+00 1.045739999999999981e+01 7.669279999999999653e+00 1.059939999999999927e+01 1.080150000000000077e+01 1.086829999999999963e+01 7.811379999999999768e+00 6.626929999999999765e+00 1.080170000000000030e+01
9.993319999999999981e-01 1.395659999999999901e+00 1.578140000000000098e+00 3.693130000000000024e+00 5.032790000000000319e+00 9.280070000000000263e-01 1.074950000000000072e+00 4.900540000000000340e+00 4.505620000000000402e+00 4.437310000000000088e+00 5.208679999999999977e-01 3.968649999999999789e+00 7.093309999999999782e+00 1.205379999999999896e+00 1.257400000000000073e+00 9.833019999999999428e+00 4.319460000000000299e+00 1.311269999999999936e+00 7.339059999999999917e+00 4.726539999999999964e+00 4.180100000000000371e+00 1.000830000000000020e+01 1.723190000000000000e+00 3.809330000000000105e+00 1.052540000000000031e+00 8.083249999999999602e+00 1.831830000000000069e+00 4.341280000000000250e+00 1.104969999999999963e+01 1.435110000000000108e+00 1.657440000000000024e+00 1.050799999999999912e+01 4.821640000000000370e+00 5.634479999999999933e+00 7.662659999999999805e+00 4.998809999999999754e+00 7.115529999999999688e+00 7.600909999999999833e+00 1.221340000000000092e+00 1.056349999999999945e+01 1.079950000000000010e+01 1.622619999999999951e+00 7.369379999999999598e+00 1.105589999999999939e+01 4.928700000000000081e+00 1.091530000000000022e+01 7.858450000000000379e+00 4.684190000000000076e+00 1.897639999999999993e+00 1.527339999999999920e+00 7.607000000000000206e+00 4.546579999999999622e+00 4.300069999999999837e+00 7.250720000000000276e+00 1.042200000000000015e+00 3.654910000000000103e+00 1.025089999999999968e+01 3.715539999999999843e+00 1.135839999999999961e+00 1.070640000000000036e+01 7.551239999999999952e+00 1.285900000000000043e+00 7.175430000000000419e+00 1.059200000000000053e+01 4.475259999999999572e+00 7.484569999999999723e+00 7.065549999999999997e+00 4.375680000000000014e+00 9.977679999999999438e+00 9.440899999999999181e+00 1.592060000000000031e+00 1.049699999999999989e+01 1.715240000000000098e+00 7.030140000000000278e+00 7.563500000000000334e+00 5.240890000000000271e+00 1.123290000000000077e+01 7.679770000000000429e+00 1.928209999999999980e+00 9.998910000000000409e+00 1.068790000000000084e+01 4.996159999999999712e+00 7.207180000000000142e+00 1.078839999999999932e+01 8.111219999999999430e+00 7.009229999999999627e+00 7.820999999999999730e+00 1.112959999999999994e+01 1.073900000000000077e+01 8.300509999999999167e+00 7.581039999999999779e+00 9.599299999999999500e+00 1.003149999999999942e+01 1.074150000000000027e+01 7.331470000000000375e+00 1.128749999999999964e+01 3.901870000000000172e+00 2.228209999999999802e+00 1.501509999999999900e+00 1.141499999999999959e+00 4.409040000000000070e+00 1.804899999999999949e+00 4.698660000000000281e+00 5.273189999999999600e+00 4.108019999999999783e+00 1.990830000000000100e+00 1.646730000000000027e+00 4.711359999999999992e+00 1.014339999999999975e+01 1.744729999999999892e+00 1.078910000000000036e+00 7.296920000000000073e+00 4.710119999999999862e+00 1.102519999999999945e+00 1.060720000000000063e+01 4.985229999999999606e+00 4.761070000000000135e+00 7.233690000000000175e+00 1.792280000000000095e+00 4.030310000000000059e+00 4.412289999999999601e+00 7.987739999999999618e+00 2.059260000000000090e+00 1.560850000000000071e+00 1.108999999999999986e+01 2.202220000000000066e+00 4.595740000000000158e+00 1.034849999999999959e+01 5.066060000000000230e+00 1.430790000000000006e+00 7.731630000000000003e+00 4.639630000000000365e+00 1.055969999999999942e+01 8.080310000000000770e+00 1.984739999999999949e+00 7.249130000000000074e+00 1.056310000000000038e+01 2.086059999999999803e+00 1.034950000000000081e+01 1.149259999999999948e+01 4.429210000000000313e+00 8.041430000000000078e+00 7.686410000000000409e+00 4.586969999999999992e+00 4.728690000000000282e+00 1.690269999999999939e+00 8.043340000000000600e+00 1.806470000000000020e+00 4.495219999999999771e+00 7.749069999999999681e+00 4.004380000000000273e+00 4.409939999999999749e+00 1.043660000000000032e+01 1.083579999999999988e+00 8.591710000000000180e-01 1.103190000000000026e+01 1.104710000000000036e+01 1.467910000000000048e+00 7.853710000000000413e+00 7.966730000000000089e+00 4.486100000000000421e+00 7.465200000000000280e+00 1.046759999999999913e+01 4.379879999999999995e+00 1.084759999999999991e+01 6.582499999999999574e+00 1.640870000000000051e+00 1.091230000000000011e+01 5.219439999999999635e+00 6.942499999999999893e+00 7.947210000000000107e+00 1.761710000000000109e+00 1.060410000000000075e+01 7.748269999999999769e+00 5.004220000000000113e+00 9.890689999999999316e+00 1.097860000000000014e+01 2.394680000000000142e+00 7.327709999999999724e+00 1.045889999999999986e+01 1.085260000000000069e+01 8.010830000000000339e+00 7.290700000000000180e+00 8.513799999999999812e+00 1.060430000000000028e+01 7.710549999999999571e+00 1.129790000000000028e+01 1.015859999999999985e+01 1.108500000000000085e+01 8.017889999999999517e+00 6.893320000000000114e+00 1.072310000000000052e+01
7.736169999999999991e-01 2.062489999999999934e+00 1.499919999999999920e+00 3.873540000000000205e+00 4.401049999999999685e+00 1.455389999999999961e+00 1.818179999999999907e+00 4.926300000000000345e+00 4.735960000000000392e+00 4.197650000000000325e+00 1.244569999999999954e+00 3.907950000000000035e+00 6.958129999999999704e+00 1.481759999999999966e+00 1.592589999999999950e+00 9.623300000000000409e+00 4.410449999999999982e+00 1.184749999999999970e+00 8.510999999999999233e+00 3.671450000000000102e+00 3.621170000000000222e+00 1.009580000000000055e+01 1.579590000000000050e+00 3.792510000000000048e+00 2.114869999999999806e+00 7.743929999999999758e+00 2.198650000000000215e+00 4.479309999999999903e+00 1.018989999999999974e+01 1.079250000000000043e+00 1.668849999999999945e+00 1.078400000000000070e+01 4.758840000000000181e+00 5.267000000000000348e+00 7.762880000000000003e+00 4.807339999999999947e+00 7.942059999999999675e+00 7.893069999999999808e+00 1.356360000000000010e+00 1.074220000000000041e+01 1.085519999999999996e+01 1.506050000000000111e+00 7.421070000000000277e+00 1.032240000000000002e+01 4.469809999999999839e+00 1.133910000000000018e+01 7.777239999999999931e+00 5.149849999999999817e+00 1.594859999999999944e+00 1.661640000000000006e+00 7.609670000000000378e+00 5.105249999999999844e+00 4.416549999999999976e+00 7.335280000000000022e+00 1.178679999999999950e+00 3.947280000000000122e+00 1.032099999999999973e+01 3.931410000000000071e+00 1.435019999999999962e+00 1.080109999999999992e+01 7.973819999999999908e+00 1.123170000000000002e+00 7.279180000000000206e+00 1.114809999999999945e+01 3.938000000000000167e+00 7.059529999999999639e+00 7.185570000000000235e+00 4.268430000000000391e+00 1.042719999999999914e+01 9.965899999999999537e+00 1.573819999999999997e+00 1.038069999999999915e+01 2.199450000000000127e+00 7.252139999999999809e+00 8.149530000000000385e+00 4.691559999999999953e+00 1.068369999999999997e+01 7.501129999999999853e+00 1.815020000000000078e+00 9.760809999999999320e+00 1.042469999999999963e+01 4.216120000000000090e+00 7.429330000000000211e+00 1.060430000000000028e+01 8.095430000000000348e+00 7.533319999999999794e+00 7.120680000000000121e+00 1.061989999999999945e+01 1.022480000000000011e+01 8.119170000000000442e+00 7.329220000000000290e+00 9.330799999999999983e+00 1.041939999999999955e+01 1.118369999999999997e+01 7.101840000000000153e+00 1.133290000000000042e+01 3.723930000000000184e+00 2.040529999999999955e+00 1.674569999999999892e+00 9.572319999999999718e-01 4.991039999999999921e+00 1.648369999999999891e+00 4.548650000000000304e+00 4.653220000000000134e+00 4.852769999999999584e+00 1.498220000000000107e+00 2.188050000000000050e+00 4.982029999999999959e+00 9.675169999999999604e+00 1.556019999999999959e+00 1.142889999999999961e+00 6.656810000000000116e+00 4.878659999999999997e+00 1.537910000000000110e+00 1.091200000000000081e+01 5.187129999999999797e+00 4.449119999999999742e+00 7.068640000000000256e+00 1.749230000000000063e+00 4.705429999999999779e+00 4.797970000000000290e+00 7.732079999999999842e+00 1.440509999999999957e+00 1.492210000000000036e+00 1.114579999999999949e+01 1.932060000000000111e+00 4.533330000000000304e+00 1.035979999999999990e+01 4.723169999999999646e+00 1.947170000000000067e+00 8.478490000000000748e+00 5.515159999999999840e+00 1.095640000000000036e+01 8.179619999999999891e+00 1.948059999999999903e+00 7.256450000000000067e+00 1.036200000000000010e+01 1.598379999999999912e+00 1.035019999999999918e+01 1.123780000000000001e+01 4.824690000000000367e+00 8.002700000000000813e+00 7.281659999999999577e+00 4.305600000000000094e+00 4.394309999999999938e+00 1.418039999999999967e+00 7.885919999999999597e+00 1.970199999999999951e+00 4.699099999999999611e+00 7.570920000000000094e+00 4.027350000000000207e+00 4.380939999999999834e+00 1.046540000000000070e+01 1.332810000000000050e+00 9.444569999999999910e-01 1.068040000000000056e+01 1.082970000000000077e+01 1.647699999999999942e+00 7.718740000000000379e+00 7.795510000000000161e+00 4.987059999999999604e+00 7.888490000000000002e+00 1.083450000000000024e+01 4.133499999999999730e+00 9.835580000000000211e+00 7.156769999999999854e+00 1.604989999999999917e+00 1.067810000000000059e+01 5.078520000000000145e+00 7.225109999999999921e+00 7.453269999999999840e+00 1.489489999999999981e+00 1.075949999999999918e+01 8.009750000000000369e+00 4.833750000000000213e+00 1.049039999999999928e+01 1.069969999999999999e+01 1.738350000000000062e+00 7.253860000000000419e+00 1.091830000000000034e+01 1.087110000000000021e+01 7.671800000000000175e+00 7.766110000000000291e+00 7.740800000000000125e+00 1.039020000000000010e+01 7.870569999999999844e+00 1.090429999999999922e+01 9.969480000000000786e+00 1.096119999999999983e+01 8.540520000000000778e+00 6.720180000000000042e+00 1.110449999999999982e+01
1.098440000000000083e+00 1.480240000000000000e+00 1.898649999999999949e+00 4.048390000000000377e+00 4.976820000000000022e+00 1.353159999999999918e+00 1.586130000000000040e+00 4.806709999999999816e+00 4.263180000000000192e+00 4.365289999999999893e+00 1.776650000000000063e+00 4.784469999999999779e+00 7.240450000000000053e+00 1.554440000000000044e+00 1.450369999999999937e+00 1.006620000000000026e+01 4.831850000000000200e+00 1.274739999999999984e+00 7.626789999999999736e+00 4.582290000000000418e+00 4.769619999999999749e+00 1.086619999999999919e+01 1.622449999999999948e+00 4.540540000000000020e+00 1.123080000000000078e+00 8.599180000000000490e+00 1.061560000000000059e+00 4.515469999999999651e+00 1.098140000000000072e+01 1.998089999999999922e+00 1.769190000000000040e+00 1.052800000000000047e+01 5.285330000000000084e+00 5.485249999999999737e+00 7.358270000000000088e+00 4.094420000000000393e+00 7.099149999999999849e+00 7.313729999999999620e+00 1.456879999999999953e+00 1.068180000000000085e+01 1.123170000000000002e+01 1.676539999999999919e+00 7.246470000000000411e+00 1.086960000000000015e+01 4.725869999999999571e+00 1.141789999999999949e+01 8.151780000000000470e+00 5.144700000000000273e+00 1.783689999999999998e+00 1.298440000000000039e+00 7.980710000000000193e+00 4.932909999999999684e+00 4.290540000000000020e+00 7.335630000000000095e+00 1.159790000000000099e+00 4.002329999999999721e+00 1.101640000000000086e+01 4.209220000000000184e+00 1.183689999999999909e+00 1.052740000000000009e+01 7.763150000000000439e+00 1.259309999999999929e+00 7.782639999999999780e+00 1.073339999999999961e+01 4.377779999999999561e+00 7.570289999999999964e+00 6.974249999999999616e+00 4.396910000000000096e+00 9.980510000000000659e+00 1.030180000000000007e+01 1.576989999999999892e+00 1.048579999999999934e+01 1.573749999999999982e+00 7.496470000000000411e+00 7.802550000000000097e+00 4.820619999999999905e+00 1.056830000000000069e+01 8.302720000000000766e+00 1.783800000000000052e+00 1.018490000000000073e+01 1.065290000000000070e+01 4.672089999999999854e+00 7.488550000000000040e+00 1.127330000000000076e+01 7.812789999999999679e+00 7.438460000000000072e+00 7.240899999999999892e+00 1.128110000000000035e+01 1.058440000000000047e+01 7.597240000000000215e+00 7.524829999999999686e+00 9.664989999999999526e+00 1.008810000000000073e+01 1.150159999999999982e+01 7.750149999999999650e+00 1.079250000000000043e+01 4.112230000000000274e+00 1.481179999999999941e+00 1.550489999999999924e+00 1.219889999999999919e+00 4.444180000000000241e+00 1.442120000000000068e+00 4.793879999999999697e+00 4.782670000000000421e+00 4.353519999999999612e+00 1.151270000000000016e+00 1.803520000000000012e+00 4.575789999999999580e+00 1.014109999999999978e+01 1.880609999999999893e+00 1.149070000000000036e+00 7.363920000000000243e+00 4.198039999999999772e+00 1.514280000000000070e+00 1.116709999999999958e+01 4.678930000000000256e+00 4.581129999999999924e+00 7.214319999999999844e+00 1.461279999999999912e+00 4.590449999999999697e+00 4.145030000000000214e+00 7.427109999999999879e+00 1.684180000000000010e+00 1.572230000000000016e+00 1.101709999999999923e+01 2.157410000000000050e+00 4.533590000000000231e+00 9.994690000000000296e+00 4.960219999999999629e+00 1.543239999999999945e+00 7.688430000000000319e+00 4.480819999999999581e+00 1.091580000000000084e+01 7.848370000000000068e+00 1.980979999999999963e+00 7.445940000000000225e+00 1.089770000000000039e+01 1.671070000000000055e+00 1.061829999999999963e+01 1.095110000000000028e+01 4.389560000000000350e+00 7.799179999999999779e+00 8.438779999999999504e+00 4.577779999999999738e+00 4.913990000000000080e+00 1.403469999999999995e+00 7.728030000000000399e+00 1.495859999999999967e+00 4.654840000000000089e+00 7.188039999999999985e+00 4.155669999999999753e+00 4.402449999999999974e+00 1.023690000000000033e+01 1.241840000000000055e+00 1.313199999999999923e+00 1.098709999999999987e+01 1.082319999999999993e+01 1.233600000000000030e+00 7.317239999999999966e+00 7.862849999999999895e+00 4.351340000000000430e+00 7.477890000000000370e+00 1.055949999999999989e+01 4.705569999999999808e+00 1.076829999999999998e+01 7.405030000000000001e+00 1.320920000000000094e+00 1.036180000000000057e+01 4.790440000000000254e+00 7.772240000000000038e+00 8.474050000000000082e+00 2.187089999999999979e+00 1.077309999999999945e+01 7.663840000000000430e+00 4.806820000000000093e+00 1.043379999999999974e+01 1.092849999999999966e+01 1.678500000000000103e+00 7.366679999999999673e+00 1.079039999999999999e+01 1.071289999999999942e+01 7.311370000000000147e+00 7.895859999999999879e+00 8.144849999999999923e+00 1.036679999999999957e+01 7.537950000000000372e+00 9.963480000000000558e+00 1.057980000000000054e+01 1.082109999999999950e+01 7.503540000000000099e+00 6.888020000000000032e+00 1.076769999999999960e+01
9.924979999999999913e-01 1.430909999999999904e+00 1.754680000000000017e+00 4.167279999999999873e+00 4.727979999999999627e+00 1.595390000000000086e+00 1.607809999999999961e+00 4.714660000000000295e+00 4.156530000000000058e+00 4.570439999999999614e+00 1.681929999999999925e+00 5.038129999999999775e+00 7.492309999999999803e+00 1.651059999999999972e+00 1.290459999999999940e+00 1.033339999999999925e+01 5.140430000000000277e+00 1.257670000000000066e+00 7.459019999999999762e+00 4.772249999999999659e+00 4.690660000000000274e+00 1.075089999999999968e+01 1.733049999999999979e+00 4.967310000000000336e+00 1.087199999999999944e+00 8.469099999999999184e+00 9.905129999999999768e-01 4.499729999999999563e+00 1.062079999999999913e+01 2.003659999999999997e+00 1.625650000000000039e+00 1.060670000000000002e+01 5.082519999999999705e+00 5.417440000000000033e+00 7.407899999999999707e+00 3.969599999999999795e+00 7.066799999999999748e+00 7.260939999999999728e+00 1.554100000000000037e+00 1.058999999999999986e+01 1.131390000000000029e+01 1.594859999999999944e+00 7.270220000000000127e+00 1.108130000000000059e+01 4.754979999999999762e+00 1.137289999999999957e+01 8.169079999999999231e+00 5.030129999999999768e+00 1.816119999999999957e+00 1.446630000000000082e+00 8.204209999999999781e+00 4.627650000000000041e+00 4.290549999999999642e+00 7.155969999999999942e+00 1.166730000000000045e+00 4.262620000000000076e+00 1.126779999999999937e+01 4.340749999999999886e+00 1.255789999999999962e+00 1.056049999999999933e+01 7.746369999999999756e+00 1.238820000000000032e+00 7.599109999999999587e+00 1.121090000000000053e+01 4.622340000000000337e+00 7.740669999999999717e+00 7.035669999999999646e+00 4.353200000000000180e+00 1.012659999999999982e+01 1.064700000000000024e+01 1.571069999999999967e+00 1.061669999999999980e+01 1.943680000000000074e+00 7.493590000000000195e+00 7.774890000000000079e+00 4.789649999999999963e+00 1.050239999999999974e+01 8.114520000000000621e+00 1.684050000000000047e+00 1.062209999999999965e+01 1.068500000000000050e+01 4.415540000000000020e+00 7.686759999999999593e+00 1.113100000000000023e+01 7.875140000000000029e+00 7.647429999999999950e+00 7.386619999999999742e+00 1.144490000000000052e+01 1.053159999999999918e+01 7.551040000000000418e+00 7.727599999999999802e+00 9.832369999999999166e+00 1.014380000000000059e+01 1.140390000000000015e+01 7.867989999999999817e+00 1.077100000000000080e+01 4.118800000000000239e+00 1.622719999999999940e+00 1.426439999999999930e+00 1.142419999999999991e+00 4.535269999999999690e+00 1.414109999999999978e+00 4.783089999999999620e+00 4.961809999999999832e+00 4.271099999999999675e+00 1.149999999999999911e+00 1.623979999999999979e+00 4.540510000000000268e+00 1.021320000000000050e+01 1.834310000000000107e+00 1.237540000000000084e+00 7.450330000000000119e+00 4.138110000000000177e+00 1.535979999999999901e+00 1.116460000000000008e+01 4.484829999999999650e+00 4.568719999999999892e+00 7.272420000000000329e+00 1.470790000000000042e+00 4.456819999999999560e+00 4.122550000000000381e+00 7.433989999999999654e+00 1.634190000000000031e+00 1.531830000000000025e+00 1.102860000000000085e+01 2.146329999999999849e+00 4.467929999999999957e+00 1.001120000000000054e+01 5.229890000000000150e+00 1.481219999999999981e+00 7.594240000000000101e+00 4.382089999999999819e+00 1.080879999999999974e+01 7.792159999999999975e+00 1.836699999999999999e+00 7.503860000000000419e+00 1.086560000000000059e+01 1.710809999999999942e+00 1.076440000000000019e+01 1.076619999999999955e+01 4.304859999999999687e+00 7.796800000000000175e+00 8.309169999999999945e+00 4.688240000000000407e+00 4.806540000000000035e+00 1.302659999999999929e+00 7.690400000000000347e+00 1.388609999999999900e+00 4.605290000000000106e+00 7.210340000000000416e+00 4.091420000000000279e+00 4.405960000000000321e+00 1.014230000000000054e+01 1.206180000000000030e+00 1.258769999999999945e+00 1.089300000000000068e+01 1.076759999999999984e+01 1.237360000000000015e+00 7.272990000000000066e+00 7.775570000000000093e+00 4.210820000000000007e+00 7.473969999999999558e+00 1.053129999999999988e+01 4.686340000000000394e+00 1.094170000000000087e+01 7.458619999999999806e+00 1.204099999999999948e+00 1.060740000000000016e+01 4.825709999999999944e+00 7.780199999999999783e+00 8.433350000000000790e+00 2.089659999999999851e+00 1.076399999999999935e+01 7.732000000000000206e+00 4.839269999999999960e+00 1.044350000000000023e+01 1.110229999999999961e+01 1.609699999999999909e+00 7.344380000000000130e+00 1.083099999999999952e+01 1.059580000000000055e+01 7.217929999999999957e+00 7.793029999999999902e+00 8.073999999999999844e+00 1.030550000000000033e+01 7.453039999999999665e+00 9.913360000000000838e+00 1.059960000000000058e+01 1.077089999999999925e+01 7.602699999999999569e+00 7.018229999999999968e+00 1.067079999999999984e+01
1.395010000000000083e+00 1.394980000000000109e+00 1.474709999999999965e+00 4.519490000000000229e+00 4.519459999999999589e+00 1.494010000000000060e+00 1.340719999999999912e+00 4.287550000000000416e+00 4.364169999999999661e+00 4.335040000000000227e+00 1.355569999999999942e+00 4.412490000000000023e+00 7.182820000000000427e+00 1.331169999999999964e+00 1.407249999999999890e+00 1.014959999999999951e+01 4.274230000000000196e+00 1.412959999999999994e+00 7.255270000000000330e+00 4.299929999999999808e+00 4.376769999999999605e+00 1.035619999999999941e+01 1.363779999999999992e+00 4.439149999999999707e+00 1.373539999999999983e+00 7.411319999999999908e+00 1.452020000000000088e+00 4.288380000000000081e+00 1.018309999999999960e+01 1.417610000000000037e+00 1.403680000000000039e+00 1.065910000000000046e+01 4.569040000000000212e+00 4.401370000000000005e+00 7.426420000000000243e+00 4.480030000000000179e+00 7.304739999999999789e+00 7.304719999999999658e+00 1.431140000000000079e+00 1.018459999999999965e+01 1.018459999999999965e+01 1.417829999999999924e+00 7.594719999999999693e+00 1.068829999999999991e+01 4.581529999999999880e+00 1.068120000000000047e+01 7.589660000000000295e+00 4.578490000000000393e+00 1.347490000000000077e+00 1.347490000000000077e+00 7.347850000000000215e+00 4.398810000000000109e+00 4.398819999999999730e+00 7.500700000000000145e+00 1.349879999999999969e+00 4.316819999999999879e+00 1.032779999999999987e+01 4.502419999999999867e+00 1.407909999999999995e+00 1.077180000000000071e+01 7.259660000000000224e+00 1.345420000000000060e+00 7.336529999999999774e+00 1.052350000000000030e+01 4.431729999999999947e+00 7.556840000000000224e+00 7.423650000000000304e+00 4.399720000000000297e+00 1.052619999999999933e+01 1.058380000000000010e+01 1.393760000000000110e+00 1.066350000000000087e+01 1.398870000000000058e+00 7.548060000000000436e+00 7.628009999999999735e+00 4.258880000000000443e+00 1.011309999999999931e+01 7.262109999999999843e+00 1.383340000000000014e+00 1.050469999999999970e+01 1.058380000000000010e+01 4.475100000000000300e+00 7.550819999999999865e+00 1.070650000000000013e+01 7.443069999999999631e+00 7.443060000000000009e+00 7.521899999999999586e+00 1.057970000000000077e+01 1.057980000000000054e+01 7.597199999999999953e+00 7.520570000000000199e+00 1.058389999999999986e+01 1.066360000000000063e+01 1.047320000000000029e+01 7.441880000000000273e+00 1.055199999999999960e+01 4.683939999999999770e+00 1.652300000000000102e+00 1.731130000000000058e+00 1.654500000000000082e+00 4.690159999999999663e+00 1.733419999999999961e+00 4.737540000000000084e+00 4.737549999999999706e+00 4.817280000000000229e+00 1.683040000000000092e+00 1.683030000000000026e+00 4.851350000000000051e+00 1.088460000000000072e+01 1.673419999999999908e+00 1.753249999999999975e+00 7.476149999999999629e+00 4.538590000000000124e+00 1.677410000000000068e+00 1.088470000000000049e+01 4.743879999999999875e+00 4.823710000000000164e+00 7.660350000000000215e+00 1.640479999999999938e+00 4.728679999999999772e+00 4.635869999999999713e+00 7.636400000000000077e+00 1.713359999999999994e+00 1.661210000000000075e+00 1.080519999999999925e+01 1.740450000000000053e+00 4.671100000000000030e+00 1.071780000000000044e+01 4.749710000000000321e+00 1.602219999999999978e+00 7.481720000000000148e+00 4.618420000000000414e+00 1.094330000000000069e+01 7.856340000000000323e+00 1.762699999999999934e+00 7.741690000000000182e+00 1.078359999999999985e+01 1.736979999999999968e+00 1.057249999999999979e+01 1.057249999999999979e+01 4.685330000000000439e+00 7.643040000000000056e+00 7.643060000000000187e+00 4.717999999999999972e+00 4.728019999999999889e+00 1.667859999999999898e+00 7.867790000000000283e+00 1.631399999999999961e+00 4.624699999999999811e+00 7.695809999999999818e+00 4.586520000000000152e+00 4.586540000000000283e+00 1.060089999999999932e+01 1.684900000000000064e+00 1.684900000000000064e+00 1.103960000000000008e+01 1.065740000000000087e+01 1.638490000000000002e+00 7.729250000000000398e+00 7.571509999999999962e+00 4.596490000000000187e+00 7.648869999999999614e+00 1.067079999999999984e+01 4.650649999999999729e+00 1.074910000000000032e+01 7.882909999999999862e+00 1.688139999999999974e+00 1.106080000000000041e+01 4.609020000000000117e+00 7.592200000000000060e+00 7.669760000000000133e+00 1.688420000000000032e+00 1.098220000000000063e+01 7.964839999999999698e+00 4.638829999999999565e+00 1.064370000000000083e+01 1.072180000000000000e+01 1.662840000000000096e+00 7.764820000000000277e+00 1.089509999999999934e+01 1.046209999999999951e+01 7.510909999999999975e+00 7.587650000000000006e+00 7.770419999999999661e+00 1.082360000000000078e+01 7.849820000000000242e+00 1.087930000000000064e+01 1.087930000000000064e+01 1.095909999999999940e+01 7.818159999999999776e+00 7.818179999999999907e+00 1.097000000000000064e+01