-1.051436916700044094e+04
-1.051596267761457602e+04
-1.051159185506179165e+04
-1.051608635694890290e+04
-1.051448575053745844e+04
-1.051217378146021474e+04
-1.051313557042411776e+04
-1.051329566753296604e+04
-1.051436945612866475e+04
-1.051560976861419476e+04
-1.051484377152007073e+04
-1.051190468075850731e+04
-1.051574600188228032e+04
-1.051425519174996589e+04
-1.051535455614727653e+04
-1.051498027275984714e+04
-1.051409404975218786e+04
-1.051413844592847454e+04
-1.051612068231915873e+04
-1.051430906242238234e+04
-1.051522842004438098e+04
-1.051407149707181634e+04
-1.051324395332046151e+04
-1.051466353547871222e+04
-1.051519282174759610e+04
-1.051233639782020509e+04
-1.051489892371085807e+04
-1.051562447571198936e+04
-1.051741260433560456e+04
-1.051493261883544437e+04
-1.051273833240798376e+04
-1.051437930977928954e+04
-1.051523824999613498e+04
-1.051156802840867749e+04
-1.051198667441407633e+04
-1.051226202321011806e+04
-1.051678411317628161e+04
-1.051782738629776395e+04
-1.051458863035789727e+04
-1.051194931896001981e+04
-1.051511573493210562e+04
-1.051409270593745714e+04
-1.051577843551323167e+04
-1.051230696096645079e+04
-1.051580025638882216e+04
-1.051384392661915626e+04
-1.051510852673373120e+04
-1.051644059804069002e+04
-1.051234877125450294e+04
-1.051260860789348226e+04
-1.051465754604449285e+04
-1.051410095959366663e+04
-1.051437370527973326e+04
-1.051606286441228804e+04
-1.051564530017630204e+04
-1.051322272023534606e+04
-1.051372685457250009e+04
-1.051624604450731385e+04
-1.051782385052563586e+04
-1.051458081894655697e+04
-1.051542685238295780e+04
-1.051721773442318045e+04
-1.051429530832676028e+04
-1.051229239905157374e+04
-1.051443541138235014e+04
-1.051770020693391598e+04
-1.051510467107208933e+04
-1.051481003505718036e+04
-1.051480450479951469e+04
-1.051832700016734452e+04
-1.051402066466256110e+04
-1.051462666296156203e+04
-1.051379920348257474e+04
-1.051530814337410266e+04
-1.051263975852468502e+04
-1.051247516190829992e+04
-1.051475169329309028e+04
-1.051517837530972793e+04
-1.051539682006310068e+04
-1.051765336770931754e+04
-1.051513649945197358e+04
-1.051462875246301883e+04
-1.051467287750484138e+04
-1.051371595039147724e+04
-1.051741943588176582e+04
-1.051317690791740642e+04
-1.051481414728180971e+04
-1.051477006087299560e+04
-1.051550999102886635e+04
-1.051267351406274429e+04
-1.051652789215061057e+04
-1.051553396477251590e+04
-1.051446228948902171e+04
-1.051530542750852328e+04
-1.051554051867465751e+04
-1.051430092109976613e+04
-1.051770987769586282e+04
-1.051464383242374606e+04
-1.051268133239431336e+04
-1.051215067256139082e+04
-1.051574964767548408e+04
-1.051370208696892587e+04
-1.051408426300716565e+04
-1.051548100957749011e+04
-1.051282284300659740e+04
-1.051335195607499190e+04
-1.051640600608957720e+04
-1.051817013838632192e+04
-1.051556481904707653e+04
-1.051768054490869872e+04
-1.051489884775816245e+04
-1.051451015802035363e+04
-1.051482792694247291e+04
-1.051282320986103150e+04
-1.051633799578988510e+04
-1.051440306464262903e+04
-1.051557870883259602e+04
-1.051685977955007183e+04
-1.051396478805668448e+04
-1.051347885234780188e+04
-1.051271146723221682e+04
-1.051465828641419830e+04
-1.051428304060971823e+04
-1.051285089904950837e+04
-1.051214806866808976e+04
-1.051269355768711648e+04
-1.051529293806558053e+04
-1.051704203512189270e+04
-1.051280427720277112e+04
-1.051417639364689785e+04
-1.051397741494609909e+04
-1.051467961757575722e+04
-1.051276718399108722e+04
-1.051404482325983918e+04
-1.051296381805332931e+04
-1.051281832633213708e+04
-1.050981651233615958e+04
-1.051597958356116214e+04
-1.051370869968131046e+04
-1.051382063275904693e+04
-1.051345444796075572e+04
-1.051558111052820277e+04
-1.051246673964344700e+04
-1.051633359595626644e+04
-1.051387448048411898e+04
-1.051259270574201764e+04
-1.051543510652052282e+04
-1.051520990545168570e+04
-1.051270094761720065e+04
-1.051441419739350567e+04
-1.051644299982517623e+04
-1.051632534473406668e+04
-1.051708434607981326e+04
-1.051328390021966516e+04
-1.051550509059146680e+04
-1.051394964619695929e+04
-1.051468982483265791e+04
-1.051927850172179751e+04
-1.051346479313736745e+04
-1.051236504051878364e+04
-1.051562522324370912e+04
-1.051302500262908688e+04
-1.051568610707567132e+04
-1.051291977303748718e+04
-1.051631849852532650e+04
-1.051735264692605961e+04
-1.051559080348974385e+04
-1.051352513981412994e+04
-1.051878919033404782e+04
-1.051501907134833164e+04
-1.051245006471779925e+04
-1.051790668977979294e+04
-1.051575425210678441e+04
-1.051301623027754613e+04
-1.051298055445022874e+04
-1.051460855130647724e+04
-1.051363845773844332e+04
-1.051232303551151563e+04
-1.051516087880745908e+04
-1.051315962875863806e+04
-1.051284432584915521e+04
-1.051193711504909879e+04
-1.051455920948265521e+04
-1.051412902640817811e+04
-1.051535717216083503e+04
-1.051518681590965753e+04
-1.051556880929773979e+04
-1.051494081714117601e+04
-1.051541532230661869e+04
-1.051221997367274525e+04
-1.051573601001441057e+04
-1.051657440530438907e+04
-1.051533837485162439e+04
-1.051352707976797319e+04
-1.051710205300610323e+04
-1.051410218552794868e+04
-1.051476440247190840e+04
-1.051545411362758023e+04
-1.051407774036027695e+04
-1.051509740732622777e+04
