-2.496082482862941987e+00 3.754705356456769505e-01 2.072021182830553199e-01 5.778410368718023271e-01 -3.016690763409040632e-01 1.746285552477470082e+00 2.361923348452669991e-01 -6.835791969593284223e-02 -3.471889151141644980e-01 -4.899082803829626354e-01 -5.420075721408355029e-01 1.068302618654643155e+00 -5.140766500802495392e-02 -5.318393733664917855e-01 -1.510828553135758812e+00 -7.852426727600182454e-01 5.466448137989234901e-01 -3.989873878024008946e-01 1.111395336045537668e-01 7.934619753396232600e-01 -2.854181617123219619e-02 6.774882535749802148e-01 2.771134985078286921e-03 7.407759578408013024e-01 2.476280874771386031e-02 5.778374373273792441e-01 1.500917464677343771e+00 8.713005808251067519e-01 -3.808317999534197897e-03 9.318654868452440343e-02 -2.710539225820238207e-01 4.053328703995183746e-01 -1.948315125424674166e-01 7.397403174882409838e-01 -5.271018586851916599e-02 -6.714425616062353885e-01 -1.641722386533737366e+00 -1.149360245295552446e-01 -6.437528090219906719e-03 9.727475697397846011e-01 -6.890690164250355965e-01 3.102581035548144239e-01 2.056045890460646675e+00 -7.307594541528554810e-01 1.621286230182469867e-02 -6.852015630528376366e-01 -7.752832475622085662e-01 9.081342046850357508e-02 -3.878807363749178783e-01 -4.020557423126925878e-01 -2.763262267204553702e-01 5.031432910057023200e-01 1.193089567828686137e+00 -4.597183870866281552e-01 -2.069835745145160166e-01 -7.639271991282747809e-01 1.588803941309316237e+00 2.093392192290537412e-01 -1.154316303745392069e+00 -2.270546342171650966e-01 4.245806628705640628e-01 -6.269933301885017851e-01 -2.289780250685636620e+00 1.221445236131186052e+00 -1.308023021255081964e-01 1.071371487385566867e+00 -3.298627651443690190e-01 2.032230790337445636e-01 1.034260184384435011e+00 9.471944038809064492e-02 -2.025191109887320984e-01 -3.333567914937120680e+00 -3.632958479658265905e-01 1.515039505890036997e+00 -1.714102025791425232e+00 -1.858012840264236520e-01 9.719309873763953833e-01 3.023823003572900237e-01 -4.748123052935316890e-01 3.715655441673536008e-01 -9.293303791301882333e-02 1.376934242350893456e+00 3.225310073753495099e-01 2.788659624211979327e-01 4.249622145794020728e-02 6.683531240500376058e-02 9.890745890218815006e-01 -4.029391733582232127e-01 6.150788381483711653e-01 1.358776597619384789e-02 1.027373741682603647e+00 -2.860820205480495981e-01 7.213754418420940118e-01 -4.404022032715453894e-01 7.459901550478329479e-01 -2.303646724244296784e-01 3.463788119307366742e+00 4.005501043026147845e-01 -1.007978882110846630e+00 1.582944397209303800e+00 -2.770286521035722482e-01 -7.152346190564556894e-02 -1.279663239187527335e+00 1.463900264051841482e+00 4.331583772305734881e-01 2.973357390762437213e-01 2.485403148780532256e-01 -9.202132473273605395e-02 -4.612805893662102474e-01 1.718129401780130738e-01 2.660498873472321169e+00 -2.213426714384956473e-01 5.997010701526824805e-01 2.438717057614219197e-01 -2.911517217575294025e-01 -4.725163101722893999e-01 -3.173908579393051599e-01 1.064179597628412549e-01 -8.440252900701387118e-01 1.491206922265352786e+00 6.713458881274464440e-02 -1.515526472828405968e-01 2.122342813864095887e-02 -5.866588922668890538e-01 -3.479473905461538119e-01 -7.578424263915088943e-01 -1.610203747124684170e+00 -6.961076684338963760e-01 6.387545844803389494e-01 3.981497223931055318e-01 6.669832402867700294e-01 -6.419370959709029822e-01 7.327217200840225875e-01 4.615274152695016951e-01 -6.327268902337090939e-01 -1.378047530018864375e+00 -5.695682553464841424e-01 -6.184223006967064229e-02 -1.376074979675060150e-01 -4.215601308790350443e-01 -4.537755392442548441e-01 -3.408686293280079882e-01 4.390534025541841245e-01 -1.166149548925689006e+00 -6.097000903391450732e-01 -1.300498944969747939e+00 -9.872573333088983938e-02 1.650447682215089862e-01 -1.957979387979797981e+00 -1.558642844368365754e+00 2.506100529212783035e-01 1.114090366377101127e+00 -8.979773187645929688e-01 5.033957733359443187e-01 2.244706755420828037e-01 -6.842677383853851270e-01 6.370741114554296924e-01 2.938508658541477137e-01 6.797379688393553887e-02 -1.129755583705998045e+00 2.259567731681500491e-01 -1.638046737457222291e+00 8.776152101843127940e-02 -1.176507495113187973e+00 1.826048885787994944e-02 -3.506521910697224520e-02 -9.988992884141447703e-01 3.198776289149664720e+00 2.499641918076656866e-01 -7.013738019247457434e-01 3.141409835459678668e-01 -1.854793819108810707e-02 6.201511104610102354e-01 1.162560803135957999e+00 -6.722576013077290469e-01 -2.000061147608461071e-02 -7.229654120357964509e-01 -1.372861100725952799e+00 3.938168993490770431e-01 4.577257821381816583e-01 -2.335847220211192954e-02 -3.412460672717911869e-01 6.332462530718849791e-01 -9.579416150867212099e-02 1.651666385112591506e-01 -1.991113708614146161e-01 -2.317330135258016122e-01 -3.925097505028961598e-01 -3.266242036049325503e-01 -2.997906283727298543e-04 1.850761300913786878e+00 -2.905860790624865183e-03
1.985858373756565765e-01 7.969005687048521525e-01 -1.863026491424843722e-01 2.618797122890600404e-01 -2.262735330773740228e-01 5.666243422291018517e-01 5.284779130960414184e-01 -7.328379339468221731e-01 1.013554576422073944e-01 -1.986161763929361612e-01 9.752718788215715140e-01 -4.759898705404846386e-01 -7.473168442780245280e-03 -2.416687845745458252e-01 7.453679480832858806e-02 1.423769457500444480e+00 1.192970268642095322e+00 2.681120663471689425e-01 -2.292241310629705014e-02 -3.494694836164509433e-02 -4.890721576355628875e-01 1.404938183741202828e-01 4.247729813868786897e-01 5.912082021969293777e-01 3.880982517021934197e-01 -2.076947416483745090e-01 -2.473673776167870098e-01 4.377904766823428884e-01 -5.649844926341093254e-01 4.107594407275070442e-02 -1.027304836117934883e-01 6.303064537195574024e-01 6.504721300184682642e-01 -2.568206040245964328e+00 -1.153921382300125836e-01 4.527892640723528150e-01 -1.177704086523519711e-01 2.027664511126553992e-01 4.235023422055595455e-01 -4.700639919789625920e-01 3.269903286948148691e-01 5.603997014804708021e-01 7.320907713687336837e-01 -1.303857834137039096e-01 -6.637729608820858163e-01 1.172505315935443715e-01 -2.365471470812484100e-01 1.521506858776904558e-01 -7.226944177628076282e-01 -8.204133070965211605e-01 -6.247564704399229951e-01 4.170637856740759541e-02 9.965174184473823971e-01 -7.052299424430427122e-01 -3.805849740501283940e-02 -3.896558259960888199e-02 1.110686740014838580e+00 4.908724440676947576e-01 4.099397730403266937e-01 6.876903909110264612e-01 2.492314274072692237e-01 -2.307498236776907019e-01 -1.203188861038361063e-01 1.226124643881086440e+00 -3.542301382261847098e-01 3.766419302450475515e-01 -3.830378064640870273e-01 -8.048103104640791372e-01 1.123872385456920142e+00 2.360781778649946872e-01 1.011975919082272468e-01 -3.496232355853762797e-01 -1.090492267360543693e-01 1.959055137541642955e+00 5.859708650614642300e-01 -2.550122957506075760e-01 -3.141034454398423104e-01 3.104920739423093767e-01 -8.806542541185886572e-03 3.469230630474943178e-01 -3.859446956959756148e-01 2.386343686259567165e-01 -2.037568400496123089e-01 1.059068244547752280e-01 -2.063073743836238427e-01 1.870013207149887169e+00 -2.402217677164997511e-01 9.358825784213123944e-01 1.258184757615485316e-01 1.344265291388375416e-01 5.167279716581051341e-01 4.801889962202302020e-01 8.844600010149635816e-01 3.040843706487372788e-01 4.082269041156104672e-01 5.935443065274565583e-02 5.810096644053061032e-01 -8.015234121852480298e-01 -3.787507490562938561e-01 -6.029638000618161575e-01 9.892895332459981095e-01 -6.368519681424673617e-01 -4.372721422854308759e-01 -1.036475961087107489e+00 6.669565008139135553e-01 -9.936285269376088358e-02 -1.550046103844977541e-01 7.334909941492807617e-01 -1.438887029856413258e-01 -1.514801935958119072e+00 4.967062771361143575e-02 -1.429611518098973688e+00 -7.557500626404821398e-02 6.885059448331518617e-01 1.615089871568591295e-01 -1.753132400190648421e-01 -5.543699503513136451e-01 -2.690001253783863011e-01 -3.946231972998290316e-02 1.334035900358840898e+00 1.817924199804651642e-01 4.818345022421731683e-01 -3.142407423485482076e-01 -3.887024609446256274e-01 -1.230802508969091047e+00 -1.113961811219136955e+00 -3.460488879733371048e-01 -1.011759946416892625e-01 4.298467963614133747e-01 5.440176605907651730e-01 1.284697973394041126e-01 -5.163181378145150768e-01 -2.662284761726761428e-01 -4.981131847848757066e-01 -1.486329539572187608e+00 4.738100892820419907e-01 6.682497657030344040e-01 -4.942791557537484781e-01 3.891482902324457926e-01 -8.740686304863938272e-01 2.776966247043546887e-01 1.233910458468035820e+00 3.118614434849450445e-01 -2.246964183994681064e-01 3.227510938057843726e-01 -1.229772010822849371e+00 -6.393284547054914890e-01 -6.254599242643037460e-01 -1.230312456706931012e+00 -1.238105470382726558e+00 -1.430818908142574356e-02 -1.172047659573090872e+00 2.590741245216472977e-01 -7.307260298117848052e-01 4.892089403236368761e-01 -6.226851897348023579e-02 -3.108299168974396065e-01 4.943532035247359957e-01 -1.982675348045370434e-01 -6.448064470966660133e-01 -1.962999724008619440e+00 -1.201301157098813466e+00 -1.313252645081069703e-01 -5.759615604623643526e-01 -5.644203926009619954e-01 1.344743002355370809e+00 -2.316044583678373292e-01 -4.675576806192906498e-01 -2.151622536642043004e-01 8.927754628527257985e-01 -4.575961985389536135e-01 4.074226630473858912e-01 3.825374697892900411e-01 8.286989441376356735e-01 -4.986911687750830713e-02 1.434896677753201510e+00 -3.347504322501714258e-01 -2.071627804047182941e+00 -1.324282677634406047e-01 3.263346973891969455e-02 9.832551541311540522e-01 -5.252959158261092387e-01 1.946907189334648791e+00 -1.481930896287281474e+00 4.959370030708560861e-01 -3.632799071262390322e-01 -2.492658801896036613e-01 -1.527564377820182229e-01 -7.360492417927702036e-01 6.280634233233964858e-01 9.552733242280143644e-01 -3.836702978412712822e-02
1.491054712958323203e-01 -3.721682107478901935e-01 8.904244461238748631e-02 1.699231793559379811e-01 3.618794786574391686e+00 -4.940277018647704077e-01 -2.832322098062971527e-01 1.752957565175816967e-01 -2.185926194993234872e-01 1.737633790346473084e-01 2.299903198044376401e-02 3.329150759709467611e+00 -3.422287428992701885e-01 2.697801980769136132e-01 -3.144171200252751652e-01 -5.960845564488309600e-03 1.977903380581735593e-01 8.949495876842178746e-03 2.417258630646819673e-01 1.371082925780990669e+00 -6.771925767116622474e-02 4.528921081987242192e-01 1.430283604464810843e+00 4.573745694466231360e-01 -6.797307697505092783e-01 8.345903699168233381e-02 2.651840940693742099e-01 -8.160090073846645309e-01 1.715513561425873190e+00 3.690628323521047527e+00 -6.647160415209117934e-01 2.629800930191711572e+00 -8.258522187196745135e-01 -2.312357621747957448e-01 -1.556392100662727040e+00 -7.423931817279921797e-01 5.677617982667698682e-01 -1.261923655829718882e+00 1.533056768389048807e+00 7.401619784063638852e-01 -4.019395284498928911e-01 1.246195189363103584e+00 6.741437625853812232e-01 -1.283402137401760956e-01 -7.720611410829915366e-02 7.652991397740697976e-02 6.956458983064887081e-01 -7.756838254344252670e-01 2.859622071408268740e-01 4.974570392586258327e-02 5.136488185145444696e-01 -2.396833787149453207e-02 -2.459861809996186643e-01 1.317626605775646720e+00 4.681706316124644718e-01 -2.982073430472416131e-01 4.829503610133032421e-01 8.309347754449508683e-01 1.182290934559685758e-01 -8.261653790844754042e-01 -1.285227620644853741e-01 1.016830676067636219e+00 6.643555728579798592e-01 3.737442969845324314e-01 3.338404159979737162e+00 -6.702146027373605541e-01 -9.684348013003986066e-01 3.538557856061926854e-01 8.365078986530186667e-01 1.961746568328783247e-01 -4.058676598566497984e-01 -6.657326557100934350e-01 7.512454899054132884e-02 6.424945111358361105e-01 -6.412413554560001394e-01 -2.854269034630635415e-01 -7.359140017665918299e-01 1.579145849401774881e-01 -3.328817544740024226e-01 1.830696411858720118e+00 1.133251769781994822e+00 2.342880730013735313e+00 -4.317499269199167045e-01 -3.640224417186407324e-01 -8.206961284440426104e-04 1.005131642472253672e-01 -1.965711209400402074e-02 4.824901335477909670e-01 1.170686517560564965e+00 -6.636068676179959769e-02 7.310371332940583944e-01 7.242437645265933921e-02 2.346568720385414641e-01 -2.677495408017096512e-01 3.256291866822889070e-01 7.402205995583955797e-03 -5.060008150569327290e-01 -2.569338354077314257e+00 -2.059419692026261739e+00 1.939434535112500579e-01 2.045363985275077540e-02 -4.782149032145305290e-02 4.594545919024854430e-01 -1.148717469505731135e-02 -2.094751791641167760e+00 -3.276603581781247221e-01 -3.465831632098367310e-01 -1.344809851037512383e+00 4.570233567550647247e-01 5.808415142586889068e-01 5.358132704094840104e-01 7.672187253927926776e-01 -9.704577452661246051e-01 3.511062478876524340e-01 9.846245236737896644e-02 -4.789327552166032231e-01 2.505180074281758776e-02 -4.959627141024489094e-01 -8.484804976245491348e-01 -9.828298936686082066e-03 -9.792149226266522177e-02 -2.059388324567717810e+00 6.059524503741701151e-01 -6.028136476373138208e-01 -8.242432223625935084e-01 9.067252401537471279e-03 3.886860058844062160e-01 1.214595303094216705e+00 -3.554987205249763860e-01 -7.391875303089945337e-01 -3.781957507283303599e+00 -5.557259501575209093e-01 -2.058538317863258527e-01 -6.549453352949937690e-01 5.289941906104259628e-01 4.397023489915878325e-01 2.122499651156812828e+00 2.427450483570228745e-01 2.439714645640022328e-01 -1.871569753002519265e+00 3.457413840354865708e-02 -5.146114395373810324e-02 5.816997484932584506e-01 6.338530334174764524e-01 3.844076902273545482e-01 6.646018845406395092e-01 -1.520812660923897552e-01 -7.576300532705518842e-01 -5.188774138992681140e-01 3.430674367498292576e-01 1.299552264786499212e+00 2.306109841070892452e-01 5.413066894196141288e-01 -1.032427502052496004e+00 1.239328287045282861e+00 5.393397955027603441e-01 -7.308736111331277652e-01 -3.749837229734978017e+00 -3.797797045406400285e-01 6.837139227648748596e-01 -1.361955509565525801e+00 -1.096994587250377462e+00 -1.026880604096652494e+00 9.622065610073445852e-01 1.088658042366709378e+00 -3.371076196266046404e-02 -8.439934083909634843e-01 -7.378911800960825662e-01 -4.352034326834694489e-01 8.329839446629014876e-01 1.228772880135150958e+00 -7.915038231735110896e-02 -5.601729301818217932e-01 -1.252267106584073142e+00 -2.523584030695926739e-01 2.679639708051940739e-01 -3.713241175806966776e+00 -1.581580169872986552e+00 -1.297343687172672455e+00 7.578285424344487486e-01 1.568259798625358525e-01 -1.248694815854561213e+00 8.455484115816996882e-01 -3.313540049767548235e-01 -1.034658191153492168e-01 -5.098883230337728500e-01 4.814493509889121448e-02 -2.869834493156951938e-01 -1.581012470295416472e+00 -3.342336405151549172e-01 2.808107448508817550e-01 -1.619440178114103013e+00
-2.236191261757273369e-02 1.168220315410178012e+00 -7.163180819277787936e-01 6.326610699928314485e-02 -2.748210000868830605e+00 -4.121843460983833363e-01 5.568032423812618176e-02 -2.870348713788808959e-01 9.849140298895252554e-01 5.160450866589988417e-01 -1.861478687322954198e-02 -4.094204102021510305e-01 -1.657194256905056284e-01 -7.961683185250875150e-01 3.110510317691381199e-01 3.533256241347479398e-01 1.184625496228317310e-01 7.617808422109030309e-01 2.259434034317217566e-02 -2.441360151661965128e-01 -1.274825965703647146e+00 -1.406156886638704417e+00 4.464355539451256294e-01 -9.952637485469145728e-02 -1.872081916751848485e-01 -5.115101749066504055e-01 1.100573562848103704e+00 1.001876625872597792e-01 -6.616399737011422477e-01 2.328133910733335213e-02 -6.153668017022111414e-01 -2.475771796345847542e-01 -3.428915218716709123e+00 -8.058361806246342463e-01 7.089503287145292321e-01 5.900337222737677134e-01 5.999309267751224972e-01 -1.262221389575564068e-01 3.344388145472659141e-02 -1.256971196924302481e-01 -8.499547681760837303e-01 -4.208206816104244630e-01 -1.876838457596527454e-01 1.190470642150637692e+00 -2.280193121225291275e-01 -1.595994288404575023e+00 -3.033752603974061990e-01 -5.378346717133144494e-01 -4.257962804442744220e-01 1.196425317067543626e+00 1.722140322708616555e-01 -7.401234118589745670e-01 2.308177008010958431e-01 1.711187423250059014e-01 -1.862717959045729621e-01 6.503343188891305138e-01 -9.765934258454443961e-01 -4.357814166736768968e-02 7.364076535731746143e-01 8.727907922162287946e-01 3.858048276841105073e-01 -3.331789739992158800e-02 -9.932207499765460801e-01 1.031010309991097440e+00 3.468716409843085602e-01 -3.815295973508499583e-01 -2.604501789324971672e-01 -1.260417503599009281e+00 1.357174286130517826e+00 -4.495522451948118919e-02 -2.100802111595599375e-01 3.082310458240334894e-01 4.073995231189522781e-01 -7.061663382136545986e-01 -5.126640860045379444e-01 7.808378588275296517e-01 -7.493870965418815144e-01 -1.205060624138321046e+00 1.201239964843622554e-01 4.156825890569076365e-01 3.709428229821745693e-01 5.643586861251391751e-01 -2.289865611310524518e-01 -1.833437207826518645e+00 -3.002395429843411900e-01 2.003506425841904137e-01 2.473956597515391542e-01 -6.185883939607962345e-01 -1.428288942633837155e-01 2.429332531082826485e-01 1.001115579337449185e-01 1.166740902652324968e-01 5.139115852574234200e-01 -2.929886721207127565e+00 1.498058397964217581e-01 2.569375377962807572e-01 5.486379329680017847e-01 6.869766526740086476e-01 1.842226266866221207e-01 1.427995836873678370e-01 5.613180995289677178e-01 2.547927235408045110e-01 -4.939459407843050931e-01 -1.549977712500940408e+00 6.552929484421291528e-01 1.721128336505121759e+00 -2.162966243780811981e-01 6.259695169104740886e-01 5.421448690495412892e-01 -2.695380001593088437e-01 5.004179216568594990e-01 -2.402397654386147774e-01 2.159531249960006338e+00 -4.293845120133737286e-02 -1.453837994727660510e+00 3.931406992181848414e-01 8.668062925026751020e-02 6.060912899447715163e-02 1.625695157880013397e+00 -3.804553904509003770e-01 -3.761040554641249534e-01 2.559259115472281465e+00 1.146511462995063901e+00 -3.214871394926794301e-01 -1.076836624260944841e+00 -8.594529374671174005e-02 1.222184171179164780e-01 5.722267760131858338e-01 -2.876056562802423722e-01 1.501592122146340413e+00 3.037604116506671947e-01 4.524395940426899632e-01 -3.372845115239635483e-01 1.196365153253616392e-01 -7.223221220253429609e-01 -3.229305568063024811e-04 -9.841298434259431183e-01 1.550308356367224583e-01 -7.860890799200551116e-02 -4.371744403653779476e-01 5.838975274738160692e-01 1.984736858558485473e+00 -2.887250117516690473e+00 -4.736594226369078009e-01 -7.591295206330473944e-01 4.831586203692053716e-01 -8.032198260497448450e-01 4.014093669784481455e-01 1.646339059366551394e-01 5.573082070417454403e-01 3.062543817151744951e-01 6.984555998389561926e-02 3.412445246098956275e-01 6.242638470746038337e-02 -7.414346744702102754e-01 -8.711982509193670898e-01 1.797026273325976475e-01 4.867159987003933375e-01 7.284362053381249202e-01 -1.344692094512817127e-01 -1.033280079860115080e-01 -2.123160424668748825e-01 2.664156524826721273e-01 -1.161135897765081804e-01 -6.886380995355392276e-01 1.276326461507406307e-01 3.291963352054820824e-01 1.291251201126428771e+00 -2.934549159676176355e-01 -3.760402921057747205e-01 -1.827642969746752000e+00 -7.247518145108681198e-01 -5.611072690699062671e-01 3.209190799606667976e+00 -8.431572856435638474e-01 2.087900315942302631e-01 1.520646053439175915e+00 1.917456231086293483e+00 -7.695409457662595321e-01 -1.022969441970746907e+00 2.474635368749442677e-01 1.379725946161245997e-01 -5.090424300943678648e-02 -1.723806397555833758e-01 3.419608339500726513e-01 -1.736667055558581418e-01 1.279694606646070820e+00 2.237744208065481910e-01 -1.414785508841267525e-01 3.775238186286826170e-01 1.110755131358875492e+00 6.055112490720366836e-01
3.999027005271066360e-01 1.376482756636122851e+00 -2.349885443460893522e-02 2.100982088816749083e-01 -1.149465146304451402e+00 -1.034025185555675908e+00 -2.607890503288909922e-01 -2.028847218579825640e-01 1.152334497430214322e+00 -2.804646743656418750e-01 -1.089684940968528061e-02 -8.741791879222431394e-01 -8.079768811150556118e-01 -2.112539711738370851e+00 -1.551434499550992108e-01 -9.978348517062005096e-02 -1.985241308998337562e-01 2.027882540674461165e+00 7.914308038437873893e-01 3.670918246701961735e-02 -6.475729540960575292e-01 -2.836939799337048762e-01 5.577869464500045948e-01 -4.086891370415868252e+00 6.380449600083759436e-03 4.699050978037186410e-02 1.669596744324819415e+00 1.561873178377692628e-01 5.686735114470526931e-01 -2.366952426232233342e-01 -2.601514167453880533e-01 3.773505262757467088e-02 -1.283683930308018528e+00 -1.594197087296234105e-01 1.812218407673564569e+00 9.712604436724537882e-01 6.278294529359015330e-01 1.490036556107245946e-01 -5.552904052823379732e-01 -2.973840758156383046e-01 -1.101725931284095461e+00 -3.545160448974972733e-01 -2.124409980804161657e-01 -1.735393331053471266e+00 -6.721398447830339018e-01 -1.639541062613399491e+00 -5.260600476850491036e-01 -2.408845981109636603e-01 -1.876092837680334580e-01 5.337219350997207679e-01 -6.416100516490417238e-01 1.532696299726116762e-01 -9.435382951884019320e-02 7.900064126935429920e-01 -4.633693535728140855e-02 -2.155036961637575021e-01 -4.259835595983967771e+00 4.112134975454369012e-01 8.311445774627485017e-01 1.186974970295272769e+00 2.919739605478690603e-01 5.406371741569361289e-01 6.311595457478084981e-02 -1.881321433065058280e+00 -6.009876501735891274e-01 -2.199532472912175685e-01 -3.664814447801817421e-01 -6.211085892775283224e-01 6.445879033281266546e-01 -5.781130595860547450e-01 1.736121981688812932e-01 1.136977812480431949e-01 2.080891488730089722e-01 -1.949107025197734100e-01 -2.988758298686559622e-01 8.645241813384928475e-01 -4.723291338622934155e-01 -2.180979392514768855e-01 3.638049263913651910e-01 -4.275209764435233817e-01 3.309333724998956838e-01 8.978837306095949211e-01 -3.199043683878230460e-01 -8.786508505368730848e-01 -4.708929156375162850e-01 -9.651669291849462873e-01 1.517655346244294601e-01 -6.232102089999285166e-01 1.196853662853880895e-01 -9.550722639609582343e-02 -2.650387753188113482e+00 -5.154295645626657540e-01 -1.619573875478385605e-01 -2.405580680097343382e+00 1.668846496422939640e-01 -6.322856889315757456e-02 2.870215016424526033e-01 -4.013101223964997133e-01 8.988679488989695376e-02 1.199167655697237905e-01 5.335568702768946903e-01 3.588706708963165681e+00 -8.362960397526935097e-01 -2.045553218467600853e+00 1.290777603924488259e+00 8.877798094142334007e-01 -1.430942321094220149e-01 2.556483866722148446e-01 9.698026281811386040e-01 2.064328442177970069e-01 3.494309170690617639e-01 -2.790012024473763619e-01 3.165058328098158569e+00 1.668548248456462324e-01 -1.222257190508888813e+00 4.841829478678648657e-01 2.169645969788636941e-01 3.483047738852945718e-01 2.295321492214529080e+00 2.083154059510261003e-01 -4.188938969028555559e-01 1.157041158873603148e+00 2.926995258594194960e-02 1.792285159100252823e-01 -1.556651267861183019e+00 -5.181333366449707434e-01 4.376788908052298699e-01 4.753249832634932615e-01 -7.866053574344397115e-01 1.727653796323389113e+00 1.723559571652542310e-01 2.789369248683941649e-01 -3.129721600497565315e-01 2.619758715472173538e-01 -5.986859986253962873e-01 -1.861447834085042385e-01 -8.225699484265301953e-01 3.883682175339184250e-01 -3.091869819786559059e-01 2.443478740665217253e-01 8.599378475229587648e-01 1.187559124933062371e+00 -1.601465595927535235e+00 -6.887126615271584873e-01 -2.623954755828127872e-01 7.021117085314607653e-01 -9.855244097795397284e-02 2.585724508732074156e+00 1.154584726915221377e-01 1.678837803299924325e-01 7.779731356874534098e-01 -2.636671432053955821e-01 2.252137243551164125e-01 1.029644539992884966e-01 2.932872800416322367e-01 -5.018381990420489602e-02 1.584169784975019424e-01 -5.808985927488250489e-01 4.463688595291737116e+00 -3.892783880523056350e-01 -4.482461247898947287e-02 -2.688911106044325483e-02 2.689409900057226910e-01 -3.036236289625932061e-01 -2.213086814547299053e+00 -4.032091391899482180e-01 3.652642845445758235e-01 -3.695832236315441666e-01 -6.677082913776887230e-01 -8.185112049792815370e-01 -1.604131315683082981e+00 -1.186122906708285463e+00 -2.589116308019804857e-01 1.438232941212691074e+00 -7.610321369709189820e-01 2.931561537805086326e-01 3.140062577404213462e-01 1.147420605072187128e+00 -7.704110070753618089e-01 -1.597700986681708901e+00 7.253745356960472623e-01 1.043803605091071951e+00 2.127053074851907588e-01 -1.634846228244543342e-01 9.197231950652007271e-01 5.378326148307871479e-01 3.796985091028698189e+00 8.187652299714189841e-01 6.348701618272898362e-01 -1.824141127243804894e-01 5.785429480342874076e-01 7.342664388621215066e-01
1.865713294226297503e+00 2.380493398130927307e+00 6.264843031850262811e+00 -3.764691521127435658e-01 -3.081158604024974296e-02 8.568844054109909791e-01 2.470393048536621450e+00 1.204900187301181758e+00 5.794016964894888044e-01 7.077151707568083427e-01 2.291699322083727175e+00 1.015568778637058633e+00 1.535977027357365333e-02 2.105364277041435805e+00 5.912725826200379231e+00 1.009477835252710509e+00 8.780116742914746419e-01 2.499458855531715873e+00 1.450694049784485795e+00 1.231744046946021465e+00 9.519730562127551865e-01 6.314418528746981174e-01 1.427758266941760334e+00 8.017584110140067999e-01 2.929448605228785585e+00 -4.153257199383987297e-01 3.621775209356636438e+00 8.107814404412045928e-01 1.581613594214057450e+00 2.164276477950784372e+00 4.612929306613747782e-01 -8.186711275957890832e-01 3.852232441494800319e-02 4.733303214325193520e-01 3.994224184569520331e-01 7.273095479337258196e-01 2.697940820339737589e-01 -1.823981718847929034e-01 4.585640131901719485e+00 1.165800393116658062e+00 1.763848243937919724e+00 3.091432732249480786e+00 -3.689363340766678712e-01 -1.171349347955028763e+00 2.995972814151515728e-01 -7.297289560066138048e-01 -3.724752004651089576e-01 2.830213793472357020e-01 3.391362200192811760e-01 5.523414528027634773e+00 7.625855974997594044e-01 6.378264162398367132e-01 2.349366080622717345e-01 4.521305474429437865e-01 1.219826469582099726e+00 8.692231294724037660e-01 8.542063443602786466e-01 1.317839493117235472e-01 1.406603230147156491e+00 -7.335233900490878423e-01 8.726684077058467492e-01 2.977509208144052177e+00 7.555520876972171562e-01 -2.639268246244834693e-01 4.047703130282666040e-01 2.813352498953760120e-02 -8.635461336967005519e-02 4.928938453715252521e-01 -6.599363607477993776e-01 7.329803730618465740e-02 3.976737083541954210e+00 -7.159936087090768009e-01 1.020254871255173029e-01 -3.372726844494308152e-01 -5.454867889359810151e-01 7.718235711510734731e-01 1.468484540984848374e+00 1.373586151816871270e+00 2.464919684131133604e+00 -1.846720555188652996e-02 3.560710480882333662e-01 5.831519075576230976e-02 -5.228919343721770696e-01 -9.589510301870568520e-01 8.861307038478674625e-02 2.872282183364591873e-02 -1.725765578163209468e-01 -1.960784975747210390e-01 -6.074822567539451823e-01 -1.271852742010249060e-01 -1.287351351854424120e-01 9.315209590218997970e-02 -5.591897403337109385e-01 4.736439960179520958e-01 3.837165776981384807e-02 -3.906852957010668592e-01 -1.810810471583539583e+00 9.817500303417080187e-02 2.387675517696076499e-01 -2.014037664382338777e-01 -4.875156117829311242e-01 -7.283189630340615173e-01 -1.401671854287646291e+00 -6.135726859176613424e-01 -7.565928702560960062e-01 -6.184094451809099002e-01 -7.821213535246451798e-01 -1.731317618325371566e+00 -3.040428730437463756e+00 -2.485511135113222247e-01 3.135773977334524454e-01 -4.572079619619014434e-01 -1.862738527871004024e-01 -1.570882323847830053e-01 -3.029712886690191898e+00 -1.896250286449135680e-01 -3.780133566702105763e-01 -6.279132708988942602e-01 -1.733026373485032842e-02 -1.012396551559131774e+00 -4.732197639966699843e-01 -1.351274632821220623e+00 2.748046478707900087e-01 -3.666362251903707570e-01 -3.429589876185705322e+00 8.289874219121075027e-01 1.531673000668720974e-01 -2.345789676128151147e+00 -1.102777512476243338e+00 4.484420428506323275e-01 6.301758416790658179e-01 8.039721308341518657e-01 -3.145248492476492963e+00 -2.425030047056077276e+00 3.226076262494961822e-01 -1.799881226274047119e+00 -2.865599886253608286e+00 9.474551137412579038e-01 3.919389656015345898e-03 -8.001550710838761793e-01 2.537894790880511620e-01 5.458194896847926719e-02 2.374876566169151909e-02 -5.605004887243148328e-04 -1.316083943880075102e+00 -3.874287364395154198e-01 -4.733730017449634397e-01 -2.394170124276432665e-01 1.819991366744717343e-01 -6.509693813694740205e-01 5.956834643559823228e-02 4.225685175381069802e-01 -5.618354054846159684e-01 6.853589145661860282e-01 3.412033869593470436e-01 -7.289109338254553982e+00 -1.041798144626829181e+00 7.886910363172523752e-02 -1.894244825984892910e-01 2.261007549450700371e-01 4.340844885885482979e-02 8.005746751194715849e-02 -9.271403134591085227e-01 1.595359225924231350e-01 -2.132581460865003997e+00 5.663538621767451042e-01 7.151883391995885741e-01 -6.641955473973459867e+00 -1.791709231992573148e-01 -1.096986873940899887e+00 1.674148111137387096e-01 3.035475243090783315e-01 -5.788314258087591924e+00 -8.908409648356790944e-02 2.034858457766235973e-01 -1.256808703204635558e+00 -2.165195390219913030e+00 3.373071372317652528e-01 -3.082048205718087019e-01 -4.384389088991148320e+00 3.500320409877027972e-01 4.739797820905549686e-01 6.689470488798325842e-01 -7.411924765526056724e-02 -3.240387536900178223e+00 -1.379602533209600343e-02 -1.881642820959969153e+00 -3.703947666327411792e+00 -3.100241331673193823e+00 -1.022316895988920199e-01 5.310767841694476188e-02 -4.755098970027090921e+00