1.768839999999999968e+00 1.745349999999999957e+00 6.808889999999999665e-01 5.033689999999999998e+00 5.406039999999999957e+00 2.970969999999999889e+00 1.673189999999999955e+00 3.406429999999999847e+00 5.735759999999999970e+00 3.704029999999999934e+00 1.416349999999999998e+00 6.483080000000000176e+00 8.782239999999999824e+00 1.418989999999999974e+00 3.454120000000000079e+00 9.370879999999999654e+00 6.846639999999999837e+00 3.211310000000000109e+00 6.573520000000000252e+00 7.055049999999999599e+00 6.146370000000000111e+00 1.204369999999999941e+01 2.414820000000000189e+00 4.336700000000000443e+00 1.784839999999999982e+00 9.880660000000000664e+00 2.760850000000000026e+00 5.259389999999999787e+00 6.334010000000000140e+00 1.100150000000000006e+01 1.547840000000000105e+00 1.192929999999999957e+01 6.584329999999999572e+00 4.419100000000000250e+00 9.475170000000000314e+00 1.174699999999999989e+01 8.538180000000000547e+00 1.031680000000000064e+01 3.679769999999999985e+00 9.625140000000000029e+00 1.230729999999999968e+01 1.478560000000000096e+00 4.559129999999999683e+00 1.178679999999999950e+01 2.411500000000000199e+00 1.232029999999999959e+01 9.180740000000000123e+00 4.109280000000000044e+00 2.417510000000000048e+00 9.074240000000000084e-01 1.004020000000000046e+01 4.189350000000000129e+00 2.519070000000000142e+00 8.885300000000000864e+00 1.210430000000000028e+01 6.814429999999999765e+00 1.206870000000000109e+00 6.644870000000000054e+00 1.067029999999999923e+00 1.144319999999999915e+01 9.393530000000000157e+00 3.802030000000000132e-01 6.092579999999999885e+00 9.857499999999999929e+00 4.869060000000000166e+00 8.337500000000000355e+00 7.578999999999999737e+00 2.603769999999999918e+00 8.790639999999999787e+00 9.519899999999999807e+00 4.746470000000000411e+00 1.219490000000000052e+01 8.123989999999999823e-01 7.397120000000000140e+00 6.937450000000000117e+00 5.922419999999999796e+00 8.822029999999999816e+00 9.608760000000000190e+00 1.235139999999999993e+01 1.210019999999999918e+01 9.506000000000000227e+00 3.853320000000000078e+00 5.033000000000000362e+00 8.875959999999999184e+00 1.048210000000000086e+01 7.036209999999999631e+00 7.125130000000000408e+00 1.075029999999999930e+01 9.585340000000000416e+00 8.852359999999999118e+00 6.472459999999999880e+00 9.932259999999999422e+00 7.058010000000000339e+00 1.022979999999999912e+01 1.011989999999999945e+01 1.111940000000000062e+01 5.557109999999999772e+00 1.741559999999999997e+00 1.904619999999999980e+00 8.747230000000000283e-01 4.070249999999999702e+00 2.723790000000000155e+00 4.445809999999999818e+00 4.104969999999999786e+00 5.541190000000000282e+00 2.686269999999999936e+00 1.306529999999999969e+00 3.572270000000000056e+00 1.087310000000000088e+01 2.377320000000000100e+00 2.172359999999999847e+00 7.478500000000000369e+00 4.114289999999999559e+00 3.933359999999999967e+00 9.871389999999999887e+00 5.158760000000000012e+00 5.382509999999999906e+00 5.863109999999999822e+00 1.058319999999999972e+01 4.644949999999999690e+00 3.138590000000000213e+00 6.746319999999999872e+00 1.175140000000000073e+00 1.142120000000000024e+00 1.032620000000000005e+01 1.216799999999999926e+01 3.939319999999999933e+00 8.480330000000000368e+00 4.189709999999999823e+00 1.483449999999999935e+00 6.390830000000000233e+00 4.573520000000000252e+00 1.089930000000000021e+01 8.565289999999999182e+00 1.943500000000000005e+00 7.533030000000000115e+00 1.066189999999999927e+01 1.188749999999999929e+01 1.135599999999999987e+01 1.137490000000000023e+01 3.990190000000000126e+00 6.762970000000000148e+00 7.459810000000000052e+00 2.987340000000000106e+00 5.811510000000000176e+00 3.208429999999999893e-01 8.406140000000000612e+00 7.003350000000000408e-01 5.189199999999999591e+00 8.356040000000000134e+00 5.858810000000000073e+00 3.606869999999999798e+00 1.091070000000000029e+01 2.509560000000000013e+00 4.021530000000000271e+00 1.151309999999999967e+01 1.208520000000000039e+01 1.600279999999999925e+00 7.368839999999999613e+00 6.864670000000000272e+00 1.726939999999999920e+00 5.616760000000000197e+00 7.749670000000000059e+00 6.534639999999999560e+00 1.622480000000000033e-01 9.349790000000000489e+00 2.153729999999999922e+00 1.146759999999999913e+01 4.178189999999999849e+00 7.884699999999999598e+00 7.918779999999999930e+00 2.434340000000000170e+00 1.078289999999999971e+01 8.462460000000000093e+00 3.980679999999999996e+00 1.199709999999999965e+01 1.159130000000000038e+01 1.759609999999999896e+00 7.942269999999999719e+00 1.104749999999999943e+01 1.116220000000000034e+01 7.068159999999999776e+00 1.000730000000000075e+01 9.053990000000000649e+00 8.623969999999999914e+00 5.508549999999999613e+00 9.115439999999999543e+00 1.164939999999999998e+01 8.601459999999999440e+00 7.901220000000000354e+00 7.216479999999999784e+00 8.636710000000000775e+00
1.790829999999999922e+00 1.707850000000000090e+00 7.685189999999999522e-01 4.990809999999999746e+00 5.338079999999999714e+00 2.957889999999999908e+00 1.654190000000000049e+00 3.461030000000000051e+00 5.667229999999999990e+00 3.791809999999999903e+00 1.445310000000000095e+00 6.473790000000000155e+00 8.715579999999999217e+00 1.435119999999999951e+00 3.468389999999999862e+00 9.426199999999999690e+00 6.801400000000000112e+00 3.186609999999999943e+00 6.649879999999999569e+00 7.079139999999999766e+00 6.100150000000000183e+00 1.204439999999999955e+01 2.273039999999999949e+00 4.399079999999999657e+00 1.825739999999999919e+00 9.870599999999999596e+00 2.731869999999999798e+00 5.255399999999999849e+00 6.222330000000000361e+00 1.099230000000000018e+01 1.493309999999999915e+00 1.188879999999999981e+01 6.600640000000000285e+00 4.506750000000000256e+00 9.515029999999999433e+00 1.188209999999999944e+01 8.477840000000000487e+00 1.025399999999999956e+01 3.661690000000000111e+00 9.571089999999999876e+00 1.227190000000000047e+01 1.514369999999999994e+00 4.521609999999999907e+00 1.189980000000000082e+01 2.380930000000000213e+00 1.224070000000000036e+01 9.033839999999999648e+00 4.148130000000000095e+00 2.500659999999999883e+00 9.132400000000000517e-01 1.007220000000000049e+01 4.142179999999999751e+00 2.529409999999999936e+00 8.838100000000000733e+00 1.214669999999999916e+01 6.822790000000000354e+00 1.147040000000000060e+00 6.620580000000000354e+00 1.171620000000000106e+00 1.147610000000000063e+01 9.333009999999999806e+00 4.746969999999999801e-01 6.048259999999999970e+00 9.954110000000000014e+00 4.948850000000000193e+00 8.273329999999999629e+00 7.549830000000000041e+00 2.611839999999999939e+00 8.852410000000000778e+00 9.547860000000000014e+00 4.825289999999999857e+00 1.214070000000000071e+01 7.512539999999999774e-01 7.421149999999999913e+00 7.049570000000000114e+00 5.858249999999999957e+00 8.913629999999999498e+00 9.603910000000000835e+00 1.231250000000000000e+01 1.201159999999999961e+01 9.445600000000000662e+00 3.800829999999999931e+00 4.981270000000000309e+00 8.910130000000000550e+00 1.035139999999999993e+01 7.111799999999999677e+00 7.035440000000000360e+00 1.090750000000000064e+01 9.697540000000000049e+00 8.768190000000000595e+00 6.483880000000000088e+00 9.948700000000000543e+00 7.071979999999999933e+00 1.018169999999999931e+01 1.005059999999999931e+01 1.119050000000000011e+01 5.489950000000000330e+00 1.754750000000000032e+00 1.851189999999999891e+00 8.261810000000000542e-01 4.061919999999999753e+00 2.691959999999999908e+00 4.408929999999999794e+00 4.175169999999999604e+00 5.535079999999999778e+00 2.663800000000000168e+00 1.336750000000000105e+00 3.580750000000000099e+00 1.092800000000000082e+01 2.394730000000000025e+00 2.169540000000000024e+00 7.493170000000000108e+00 4.072149999999999714e+00 3.913489999999999913e+00 9.941119999999999735e+00 5.131230000000000402e+00 5.319709999999999717e+00 5.959550000000000125e+00 1.061749999999999972e+01 4.586769999999999570e+00 3.183619999999999894e+00 6.651489999999999903e+00 1.196390000000000065e+00 1.147100000000000009e+00 1.033060000000000045e+01 1.210399999999999920e+01 3.962680000000000202e+00 8.480819999999999581e+00 4.233500000000000263e+00 1.533600000000000074e+00 6.435920000000000307e+00 4.577280000000000015e+00 1.085079999999999956e+01 8.434570000000000789e+00 1.951170000000000071e+00 7.543919999999999959e+00 1.068159999999999954e+01 1.188949999999999996e+01 1.123029999999999973e+01 1.139990000000000059e+01 3.956949999999999967e+00 6.821150000000000269e+00 7.433589999999999698e+00 2.934800000000000075e+00 5.872399999999999842e+00 3.077389999999999848e-01 8.414920000000000400e+00 8.471889999999999699e-01 5.117070000000000007e+00 8.341889999999999361e+00 5.936449999999999783e+00 3.580579999999999874e+00 1.089760000000000062e+01 2.465910000000000046e+00 3.950520000000000032e+00 1.142820000000000036e+01 1.202210000000000001e+01 1.560400000000000009e+00 7.445470000000000255e+00 6.863400000000000389e+00 1.728110000000000035e+00 5.644219999999999793e+00 7.737510000000000332e+00 6.582410000000000316e+00 2.994550000000000267e-01 9.272489999999999455e+00 2.184330000000000105e+00 1.153190000000000026e+01 4.230599999999999916e+00 7.930270000000000152e+00 7.984899999999999665e+00 2.388590000000000213e+00 1.084249999999999936e+01 8.430759999999999366e+00 3.935430000000000206e+00 1.197719999999999985e+01 1.162330000000000041e+01 1.860419999999999963e+00 7.963479999999999670e+00 1.101019999999999932e+01 1.113819999999999943e+01 7.088099999999999845e+00 1.001420000000000066e+01 9.102980000000000516e+00 8.642289999999999139e+00 5.496139999999999581e+00 8.973079999999999501e+00 1.165080000000000027e+01 8.637539999999999552e+00 7.895159999999999734e+00 7.238949999999999996e+00 8.677830000000000155e+00
5.084640000000000271e+00 4.206240000000000201e+00 4.646110000000000184e+00 3.754060000000000175e-01 5.326299999999999812e+00 3.541090000000000071e-01 1.134629999999999939e+01 3.806350000000000122e+00 6.029449999999999754e+00 6.740590000000000082e+00 1.886430000000000051e+00 3.921730000000000160e+00 9.049709999999999255e+00 1.435890000000000111e+00 2.482159999999999922e+00 8.292849999999999611e+00 3.787180000000000213e+00 1.973519999999999941e+00 8.155670000000000641e+00 4.126360000000000028e+00 4.420449999999999768e+00 1.145650000000000013e+01 1.387070000000000025e+00 4.141860000000000319e+00 7.633210000000000273e-01 7.867099999999999760e+00 1.773549999999999960e+00 3.541240000000000165e+00 1.840630000000000044e-01 1.929300000000000015e+00 1.976029999999999953e+00 3.896149999999999891e-01 4.309400000000000119e+00 4.886389999999999567e+00 1.025639999999999930e+01 5.311779999999999724e+00 5.990739999999999732e+00 6.989080000000000403e+00 3.659320000000000128e+00 1.019139999999999979e+01 1.035870000000000068e+01 1.198010000000000019e+01 6.755499999999999616e+00 9.634790000000000632e+00 2.969949999999999868e+00 9.512980000000000658e+00 6.608100000000000307e+00 2.578959999999999919e+00 1.527609999999999912e+00 9.170540000000000358e-01 6.861839999999999939e+00 7.200549999999999784e+00 3.358249999999999957e+00 9.669900000000000162e+00 3.740439999999999987e+00 4.570109999999999673e+00 9.894399999999999196e+00 5.202749999999999986e+00 7.680310000000000414e+00 1.449840000000000018e+00 8.071759999999999380e+00 1.193350000000000044e+01 1.031869999999999976e+01 1.109380000000000033e+00 2.612839999999999829e+00 8.733650000000000801e+00 7.558779999999999610e+00 3.298430000000000195e+00 1.227979999999999983e+01 3.108420000000000183e+00 1.073390000000000066e+00 1.022400000000000020e+01 9.979980000000000517e-01 5.241819999999999702e+00 8.018750000000000711e+00 3.211359999999999992e+00 1.149690000000000012e+01 7.695890000000000342e+00 2.085080000000000044e+00 9.596389999999999532e+00 9.235509999999999664e+00 5.186200000000000365e+00 9.627639999999999532e+00 1.064370000000000083e+01 7.706920000000000215e+00 4.612800000000000011e+00 7.467800000000000438e+00 7.597940000000000360e+00 8.304380000000000095e+00 6.038859999999999673e+00 1.123000000000000043e+01 5.832610000000000294e-01 7.703659999999999952e-01 1.157370000000000054e+01 8.365240000000000009e+00 1.116430000000000078e+01 5.191670000000000229e+00 2.404700000000000060e+00 6.714189999999999880e-01 2.166599999999999859e+00 5.674339999999999939e+00 3.861619999999999830e+00 5.552800000000000402e+00 6.637299999999999756e+00 6.168180000000000440e+00 1.139329999999999998e+01 1.169919999999999938e+01 6.349709999999999965e+00 1.048240000000000016e+01 3.517539999999999889e+00 1.172710000000000008e+01 5.549400000000000333e+00 4.796240000000000059e+00 2.111359999999999904e+00 1.106479999999999997e+01 3.864240000000000119e+00 2.761379999999999946e+00 7.846860000000000390e+00 1.144640000000000057e+01 4.407989999999999853e+00 3.532290000000000152e+00 9.202339999999999520e+00 2.985730000000000217e+00 1.081790000000000029e+00 1.136110000000000042e+01 1.524210000000000065e+00 2.904920000000000169e+00 2.921349999999999891e+00 3.193950000000000067e+00 6.424809999999999688e-01 8.019450000000000855e+00 4.376750000000000362e+00 8.363889999999999603e+00 7.427120000000000388e+00 1.477630000000000055e-01 6.993350000000000399e+00 1.077679999999999971e+01 1.781210000000000016e-01 9.964990000000000236e+00 9.504640000000000200e+00 2.497160000000000046e+00 9.552759999999999252e+00 5.881890000000000285e+00 5.719899999999999984e+00 7.734600000000000364e+00 2.185970000000000191e+00 6.548399999999999999e+00 3.863350000000000062e+00 2.976129999999999942e+00 7.231379999999999697e+00 6.276559999999999917e+00 5.527180000000000426e+00 1.081140000000000079e+01 1.694930000000000048e+00 2.969450000000000145e+00 1.186459999999999937e+01 9.458569999999999922e+00 1.016350000000000087e+01 7.744979999999999976e+00 9.469749999999999446e+00 1.454700000000000104e+00 9.205980000000000274e+00 1.036330000000000062e+01 4.652650000000000396e+00 8.692650000000000432e+00 5.605909999999999727e+00 3.374789999999999734e-01 9.085069999999999979e+00 3.574370000000000047e+00 6.975209999999999688e+00 8.593009999999999593e+00 2.252270000000000216e+00 9.339969999999999217e+00 6.362599999999999589e+00 3.290700000000000180e+00 1.118510000000000026e+01 1.153190000000000026e+01 2.567839999999999900e+00 7.377729999999999677e+00 1.117159999999999975e+01 1.181509999999999927e+01 7.910849999999999937e+00 7.938369999999999926e+00 6.501109999999999722e+00 1.025360000000000049e+01 8.437730000000000175e+00 -1.657999999999999969e-03 1.231020000000000003e+01 1.012669999999999959e+01 9.139820000000000277e+00 7.641619999999999635e+00 9.637549999999999173e+00
4.862429999999999808e+00 3.363280000000000047e+00 5.067169999999999952e+00 1.076160000000000033e-01 4.941010000000000346e+00 2.253539999999999988e-01 1.165700000000000003e+01 2.590609999999999857e+00 6.931149999999999700e+00 6.204200000000000159e+00 1.939869999999999983e+00 3.368479999999999919e+00 9.311410000000000409e+00 7.946980000000000155e-01 2.784429999999999961e+00 8.769660000000000011e+00 4.587970000000000326e+00 2.079680000000000195e+00 7.489390000000000214e+00 4.466420000000000279e+00 3.983960000000000168e+00 1.143730000000000047e+01 1.312829999999999941e+00 4.422450000000000436e+00 3.010360000000000258e-01 7.415130000000000443e+00 1.182670000000000110e+00 4.249740000000000073e+00 9.997580000000000355e-01 2.392079999999999984e+00 2.203959999999999919e+00 6.066629999999999523e-01 4.111060000000000159e+00 5.130959999999999965e+00 1.109580000000000055e+01 5.160739999999999661e+00 5.495820000000000149e+00 8.368000000000000327e+00 4.215309999999999668e+00 1.122020000000000017e+01 1.025459999999999994e+01 1.206850000000000023e+01 7.399269999999999570e+00 9.208159999999999457e+00 2.634980000000000100e+00 1.045340000000000025e+01 6.529399999999999871e+00 3.076929999999999943e+00 2.070609999999999840e+00 1.238730000000000109e+00 6.638600000000000279e+00 7.483189999999999564e+00 3.151800000000000157e+00 9.268209999999999837e+00 3.699879999999999836e+00 3.987870000000000026e+00 1.013540000000000063e+01 4.692520000000000024e+00 7.581789999999999807e+00 1.250340000000000007e+00 7.721070000000000100e+00 1.109520000000000017e+01 9.777770000000000294e+00 1.031309999999999949e+00 2.277439999999999909e+00 9.030680000000000263e+00 7.103930000000000078e+00 3.271640000000000104e+00 1.180470000000000041e+01 2.508129999999999971e+00 6.986599999999999755e-02 9.549690000000000012e+00 9.887740000000000418e-01 5.188920000000000421e+00 8.517509999999999692e+00 3.682380000000000209e+00 1.144139999999999979e+01 7.386639999999999873e+00 2.212950000000000195e+00 9.701930000000000831e+00 9.438459999999999184e+00 5.722529999999999895e+00 8.629920000000000258e+00 1.136490000000000045e+01 8.211909999999999599e+00 4.929079999999999906e+00 6.576699999999999768e+00 8.619479999999999364e+00 9.371249999999999858e+00 5.837640000000000384e+00 9.605169999999999320e+00 7.785330000000000306e-01 1.868299999999999961e-01 1.123279999999999923e+01 7.809389999999999610e+00 1.121480000000000032e+01 4.638160000000000061e+00 2.031109999999999971e+00 1.204049999999999976e+01 2.278259999999999952e+00 6.449609999999999843e+00 5.280170000000000030e+00 5.748969999999999914e+00 6.703710000000000058e+00 6.389420000000000321e+00 1.242179999999999929e+01 1.130610000000000070e+01 5.427080000000000126e+00 1.001030000000000086e+01 3.444399999999999906e+00 1.123390000000000022e+01 4.892680000000000362e+00 5.072700000000000209e+00 2.990689999999999849e+00 1.135270000000000046e+01 4.052690000000000126e+00 2.864459999999999784e+00 7.527239999999999931e+00 1.163920000000000066e+01 4.636599999999999611e+00 4.393600000000000172e+00 1.024050000000000082e+01 2.380360000000000031e+00 1.068309999999999954e-01 1.220589999999999975e+01 1.924129999999999896e+00 2.747339999999999893e+00 3.757480000000000153e+00 3.684569999999999901e+00 4.854789999999999939e-01 8.743290000000000006e+00 4.358550000000000146e+00 7.947129999999999583e+00 6.772759999999999891e+00 9.008369999999999989e-01 7.032939999999999969e+00 1.122470000000000034e+01 6.152480000000000171e-01 9.955579999999999430e+00 1.040499999999999936e+01 2.737049999999999983e+00 9.726910000000000167e+00 7.125919999999999810e+00 5.972380000000000244e+00 8.955140000000000100e+00 2.170170000000000154e+00 5.233080000000000176e+00 2.858789999999999942e+00 3.792930000000000135e+00 7.328890000000000349e+00 5.959419999999999717e+00 5.361460000000000115e+00 1.013039999999999985e+01 1.209279999999999911e+00 2.305210000000000203e+00 1.192869999999999919e+01 9.671540000000000248e+00 1.070100000000000051e+01 7.877819999999999823e+00 9.856709999999999638e+00 1.349830000000000085e+00 8.883850000000000691e+00 1.042510000000000048e+01 4.598200000000000287e+00 8.273979999999999890e+00 5.330790000000000362e+00 9.126450000000000395e-01 7.729689999999999728e+00 2.925879999999999814e+00 6.905109999999999637e+00 9.170360000000000511e+00 3.274669999999999970e+00 8.939130000000000464e+00 6.096210000000000129e+00 2.779020000000000046e+00 1.080550000000000033e+01 1.180080000000000062e+01 2.542209999999999859e+00 7.055670000000000108e+00 1.197680000000000078e+01 1.194510000000000005e+01 7.749810000000000088e+00 8.263059999999999405e+00 6.750040000000000262e+00 8.308389999999999276e+00 8.489549999999999486e+00 1.232089999999999996e+01 1.129279999999999973e+01 9.709920000000000329e+00 8.954269999999999285e+00 6.409390000000000143e+00 1.015680000000000049e+01
1.776210000000000067e+00 1.733190000000000008e+00 7.097710000000000408e-01 5.020629999999999704e+00 5.385790000000000077e+00 2.966569999999999929e+00 1.665419999999999900e+00 3.422390000000000043e+00 5.710869999999999891e+00 3.733130000000000059e+00 1.426250000000000018e+00 6.481139999999999901e+00 8.764120000000000132e+00 1.424940000000000095e+00 3.457240000000000091e+00 9.390190000000000481e+00 6.836710000000000065e+00 3.201569999999999805e+00 6.599359999999999893e+00 7.063030000000000364e+00 6.130499999999999616e+00 1.204330000000000034e+01 2.370540000000000092e+00 4.350069999999999659e+00 1.794079999999999897e+00 9.875709999999999766e+00 2.753190000000000026e+00 5.258779999999999788e+00 6.295209999999999972e+00 1.099820000000000064e+01 1.534559999999999924e+00 1.190980000000000061e+01 6.601989999999999803e+00 4.446720000000000006e+00 9.494089999999999918e+00 1.179090000000000060e+01 8.519510000000000360e+00 1.029180000000000028e+01 3.678440000000000154e+00 9.608230000000000715e+00 1.229829999999999934e+01 1.492769999999999930e+00 4.549559999999999604e+00 1.182770000000000010e+01 2.401279999999999859e+00 1.229209999999999958e+01 9.139020000000000366e+00 4.116150000000000198e+00 2.449120000000000186e+00 9.052320000000000366e-01 1.005410000000000004e+01 4.174820000000000420e+00 2.524809999999999999e+00 8.870179999999999509e+00 1.210650000000000048e+01 6.835399999999999920e+00 1.195519999999999916e+00 6.635979999999999990e+00 1.105199999999999960e+00 1.145219999999999949e+01 9.372139999999999915e+00 4.108280000000000265e-01 6.078500000000000014e+00 9.890560000000000684e+00 4.897999999999999687e+00 8.314920000000000755e+00 7.568130000000000024e+00 2.605669999999999931e+00 8.811759999999999593e+00 9.524029999999999774e+00 4.772400000000000198e+00 1.217670000000000030e+01 7.918990000000000196e-01 7.402330000000000076e+00 6.975019999999999776e+00 5.899320000000000341e+00 8.849800000000000111e+00 9.603770000000000806e+00 1.233939999999999948e+01 1.207179999999999964e+01 9.484690000000000509e+00 3.837219999999999853e+00 5.012629999999999697e+00 8.887529999999999930e+00 1.043529999999999980e+01 7.058910000000000018e+00 7.094310000000000116e+00 1.079940000000000033e+01 9.622980000000000089e+00 8.828509999999999636e+00 6.474969999999999892e+00 9.938390000000000057e+00 7.058720000000000105e+00 1.021480000000000032e+01 1.009580000000000055e+01 1.113979999999999926e+01 5.532499999999999751e+00 1.743389999999999995e+00 1.887350000000000083e+00 8.568719999999999670e-01 4.064770000000000216e+00 2.715110000000000134e+00 4.434280000000000221e+00 4.127180000000000071e+00 5.538310000000000066e+00 2.678990000000000204e+00 1.317930000000000046e+00 3.575190000000000090e+00 1.089230000000000054e+01 2.382169999999999899e+00 2.175590000000000135e+00 7.483340000000000103e+00 4.100469999999999615e+00 3.928110000000000213e+00 9.893290000000000362e+00 5.152330000000000076e+00 5.361519999999999619e+00 5.895249999999999879e+00 1.059270000000000067e+01 4.626540000000000319e+00 3.152719999999999967e+00 6.715209999999999901e+00 1.182020000000000071e+00 1.145289999999999919e+00 1.032549999999999990e+01 1.214550000000000018e+01 3.948700000000000099e+00 8.480999999999999872e+00 4.204299999999999926e+00 1.500199999999999978e+00 6.405429999999999957e+00 4.574629999999999974e+00 1.088959999999999972e+01 8.511219999999999786e+00 1.945440000000000058e+00 7.536660000000000359e+00 1.066890000000000072e+01 1.188739999999999952e+01 1.131499999999999950e+01 1.137909999999999933e+01 3.978860000000000063e+00 6.783100000000000129e+00 7.449749999999999872e+00 2.970050000000000079e+00 5.831739999999999924e+00 3.170720000000000205e-01 8.408770000000000522e+00 7.473969999999999780e-01 5.167489999999999917e+00 8.351679999999999993e+00 5.884360000000000035e+00 3.596950000000000092e+00 1.090639999999999965e+01 2.495730000000000004e+00 3.998419999999999863e+00 1.148499999999999943e+01 1.206460000000000043e+01 1.587290000000000090e+00 7.393760000000000332e+00 6.864279999999999937e+00 1.727889999999999926e+00 5.625070000000000014e+00 7.747309999999999697e+00 6.549129999999999896e+00 2.081949999999999912e-01 9.325020000000000309e+00 2.165280000000000094e+00 1.149050000000000082e+01 4.197420000000000151e+00 7.900979999999999670e+00 7.942940000000000111e+00 2.416479999999999961e+00 1.080620000000000047e+01 8.446519999999999584e+00 3.964259999999999895e+00 1.198900000000000077e+01 1.160030000000000072e+01 1.792529999999999957e+00 7.950580000000000425e+00 1.103669999999999973e+01 1.115450000000000053e+01 7.075219999999999843e+00 1.000680000000000014e+01 9.070289999999999964e+00 8.629670000000000840e+00 5.503300000000000303e+00 9.069190000000000751e+00 1.164949999999999974e+01 8.613459999999999894e+00 7.899390000000000356e+00 7.224929999999999630e+00 8.649919999999999831e+00
5.045370000000000132e+00 4.232039999999999580e+00 4.644079999999999764e+00 3.571869999999999767e-01 5.304899999999999949e+00 3.622190000000000132e-01 1.136280000000000001e+01 3.836980000000000057e+00 6.021620000000000417e+00 6.739189999999999792e+00 1.882980000000000098e+00 3.892479999999999940e+00 9.051930000000000476e+00 1.451920000000000099e+00 2.469889999999999919e+00 8.274900000000000588e+00 3.741750000000000131e+00 1.993500000000000050e+00 8.156689999999999330e+00 4.093560000000000088e+00 4.435240000000000293e+00 1.145059999999999967e+01 1.388910000000000089e+00 4.127239999999999576e+00 7.782839999999999758e-01 7.882699999999999818e+00 1.794119999999999937e+00 3.538730000000000153e+00 1.859649999999999914e-01 1.955810000000000048e+00 1.968990000000000018e+00 3.674569999999999781e-01 4.314099999999999824e+00 4.892050000000000232e+00 1.025300000000000011e+01 5.328090000000000437e+00 6.009159999999999613e+00 6.964459999999999873e+00 3.623969999999999914e+00 1.015119999999999933e+01 1.036609999999999943e+01 1.196899999999999942e+01 6.721440000000000303e+00 9.636540000000000106e+00 2.967729999999999979e+00 9.520949999999999136e+00 6.635139999999999816e+00 2.549999999999999822e+00 1.553919999999999968e+00 9.197370000000000267e-01 6.863190000000000346e+00 7.170309999999999739e+00 3.366540000000000088e+00 9.670619999999999550e+00 3.736299999999999955e+00 4.580729999999999968e+00 9.882130000000000081e+00 5.199950000000000294e+00 7.683270000000000266e+00 1.446150000000000047e+00 8.119820000000000704e+00 1.193960000000000043e+01 1.033510000000000062e+01 1.105669999999999931e+00 2.636919999999999931e+00 8.718519999999999825e+00 7.571360000000000312e+00 3.296060000000000212e+00 1.228389999999999915e+01 3.085449999999999804e+00 1.082279999999999909e+00 1.020819999999999972e+01 9.964589999999999836e-01 5.244060000000000166e+00 8.002129999999999299e+00 3.212759999999999838e+00 1.154209999999999958e+01 7.683609999999999829e+00 2.078250000000000153e+00 9.618349999999999511e+00 9.270210000000000505e+00 5.215090000000000003e+00 9.624060000000000059e+00 1.061790000000000056e+01 7.740429999999999922e+00 4.607759999999999856e+00 7.486329999999999707e+00 7.579539999999999722e+00 8.277879999999999683e+00 6.015690000000000204e+00 1.122979999999999912e+01 6.037390000000000256e-01 8.081800000000000095e-01 1.155930000000000035e+01 8.377209999999999823e+00 1.113819999999999943e+01 5.199080000000000368e+00 2.403319999999999901e+00 7.057769999999999877e-01 2.159959999999999880e+00 5.649969999999999715e+00 3.825070000000000192e+00 5.543239999999999945e+00 6.650780000000000136e+00 6.139020000000000366e+00 1.139109999999999978e+01 1.171780000000000044e+01 6.344780000000000086e+00 1.048809999999999931e+01 3.520230000000000192e+00 1.173499999999999943e+01 5.567420000000000258e+00 4.795410000000000394e+00 2.112699999999999800e+00 1.103969999999999985e+01 3.873219999999999885e+00 2.770789999999999864e+00 7.848950000000000315e+00 1.143970000000000020e+01 4.421870000000000189e+00 3.519080000000000208e+00 9.178789999999999338e+00 3.008809999999999985e+00 1.096119999999999983e+00 1.134789999999999921e+01 1.531519999999999992e+00 2.928580000000000183e+00 2.895410000000000039e+00 3.197229999999999794e+00 6.190499999999999892e-01 7.980749999999999567e+00 4.377159999999999940e+00 8.389099999999999113e+00 7.416199999999999903e+00 1.329629999999999979e-01 6.978760000000000296e+00 1.077420000000000044e+01 1.838180000000000092e-01 9.964809999999999945e+00 9.499959999999999738e+00 2.501349999999999962e+00 9.585710000000000619e+00 5.882200000000000095e+00 5.740479999999999805e+00 7.700650000000000439e+00 2.179199999999999804e+00 6.534370000000000012e+00 3.869339999999999780e+00 2.951989999999999892e+00 7.247010000000000396e+00 6.287119999999999820e+00 5.523430000000000284e+00 1.082370000000000054e+01 1.715459999999999985e+00 2.981599999999999806e+00 1.186519999999999975e+01 9.451629999999999754e+00 1.014509999999999934e+01 7.741999999999999993e+00 9.476319999999999411e+00 1.458479999999999999e+00 9.220050000000000523e+00 1.036930000000000085e+01 4.660890000000000200e+00 8.679819999999999425e+00 5.588350000000000151e+00 3.346160000000000245e-01 9.077709999999999724e+00 3.565949999999999953e+00 6.974789999999999601e+00 8.610020000000000451e+00 2.263980000000000103e+00 9.372389999999999333e+00 6.369550000000000267e+00 3.280460000000000154e+00 1.120829999999999949e+01 1.152200000000000024e+01 2.586920000000000108e+00 7.379209999999999603e+00 1.117009999999999970e+01 1.181639999999999979e+01 7.895450000000000301e+00 7.925769999999999982e+00 6.447860000000000369e+00 1.029180000000000028e+01 8.417419999999999902e+00 4.044500000000000178e-02 1.231010000000000026e+01 1.013449999999999918e+01 9.142929999999999779e+00 7.644280000000000186e+00 9.638519999999999754e+00