-1.050176547863048108e+04
-1.050148820711170447e+04
-1.049991878585275117e+04
-1.050011299608835907e+04
-1.050137930570982826e+04
-1.049961515651776972e+04
-1.049968426420608739e+04
-1.050005146634879929e+04
-1.050126267445049962e+04
