1.388241439824800666e-02 3.365409484902980308e-01 1.274444413994809018e-02 -2.583434170037782751e-01 -6.773674117264937289e-01 4.235943876986619783e-02 4.781809646528278890e-01 8.106719114466189868e-01 8.124228326980927894e-01 -2.040653724287266324e-01 -1.781229415515324099e-01 -5.071871220546272374e-01 -1.175165893484672708e+00 -3.527959768839350474e-01 4.476414013268306680e-01 -3.856443908469710524e-01 -8.466827822955764749e-01 6.352172607537934779e-01 -2.113750187105762623e-01 1.517418804753640216e-01 2.288168683225396127e-01 2.660531269372128360e-01 -7.784045667975815208e-01 2.201996103959403595e+00 1.911190452687113517e+00 6.865169394291283922e-01 -6.797122578077624544e-01 -1.898178613818599925e-01 6.627054388503502702e-01 1.517531933292648738e-01 -1.104904843230236411e+00 1.518938326720778109e+00 -3.099495711757001004e+00 5.677849381952034813e-01 -1.534295011670560704e+00 3.554210732095658964e-01 -1.584344619989850877e-01 1.419741053070475267e+00 -1.318063179092093362e+00 -1.554653520706417991e-01 -8.489129571759410631e-01 -4.317072466074725057e-01 -8.220516140296182384e-01 -7.800798976161722464e-01 -2.155510044618883306e-02 1.742308055890054719e-01 -2.902639198366280038e+00 1.693797509921913136e+00 -8.947238448268326483e-01 1.205562503475013925e+00 -6.974929788161196020e-01 -6.973407695090899638e-01 -4.545756665474245950e-01 2.196272314106201273e-01 3.195478592237564364e+00 -5.175140607380251723e+00 -2.365863821154591040e+00 1.516405790108881768e-01 -1.027572230846500512e+00 6.098522996461748225e-01 3.365666595218909096e-01 2.459728112631903718e-01 -4.559717755629168479e-01 -4.258101644013345677e-01 -5.198878574408674069e-01 5.092208646536223737e-01 5.710019024681018962e-01 4.502824384920491030e-02 6.676486417843933985e-02 1.414542796703031069e+00 -9.317523583062355119e-02 8.738408307464810842e-02 -1.243575749464422980e-01 8.954890051270361084e-01 7.833688527775306554e-02 -1.341647908372222697e-01 5.055806968007053870e-01 7.383848319026655727e-01 3.423166746273177685e-02 -1.351628930836570319e-01 -8.610418792195560778e-02 -6.899123382612812883e-01 6.368946484549115050e-01 -2.753301813565480205e-01 1.081977802138252676e+00 7.012971830505990711e-01 3.782457843958100252e-01 9.515493384121046505e-01 -1.800034464022340630e-01 -1.585156060146921675e+00 5.897179908058073350e-01 -5.193052454649732530e-01 1.423873330068079701e+00 -2.032647309049249729e-01 4.684190001776515344e-01 1.515656056427633791e+00 1.148203248873874038e+00 8.677174914623260182e-01 -6.574259356230727214e-02 1.065960857897165770e+00 1.513960671004400682e+00 -1.062273895966749704e+00 -2.475170158206574378e-01 8.995024971586813578e-01 5.209594932376577781e-01 -5.585927301801247441e-02 -5.897457587199276263e-01 5.821028974686345142e-02 -5.832043580620727141e-01 3.735746041760195646e-01 -2.547044318583146172e+00 2.015230656248247557e-02 -3.803602596340067699e-01 -6.917270228711052127e-01 6.187735133882648064e-01 -1.606533240254487627e+00 -5.715408056902883394e-02 -3.287628472128265034e-01 1.260147537767284165e+00 -8.001463293331345650e-01 7.550846611428588817e-01 -3.979682025100599319e-01 2.275308025222648189e-01 -8.815824223590909003e-01 6.742034121786766310e-01 4.789954901336897497e-01 -8.241388355743264338e-01 -3.484451561177914769e-01 8.846960282849859747e-02 1.331970276080670645e-01 7.106529132266083603e-04 -5.377719367962278951e-02 -2.951338977526944962e+00 4.757532776277670905e+00 4.496885136622540968e-01 -8.148031600029595478e-02 -1.683980009618495921e-01 3.839448916586831184e-01 -1.052983986031618135e+00 3.104189003463961427e+00 1.728408672210955399e-01 -3.682642477108305501e-01 7.254845789112647214e-01 -3.758238052197627743e-01 3.866558628298340516e-01 -1.804940128850257841e-01 -2.011692818301069885e-01 7.584301805737216906e-01 -1.070043255493479784e+00 -5.156244541821396882e-02 2.446584633281634058e-01 1.135928802391443226e-01 -6.114103881607020341e-01 -4.916766851359193891e-01 -2.301348158019895229e-01 1.038633116637748127e-01 -3.885229979441074399e-01 -4.960599018018699846e-01 5.381138935164130332e-01 -2.427069960302654511e-02 -2.524442779151128136e-01 7.378839810072367333e-01 -7.932352040409742511e-01 7.205177218281563212e-01 -1.880628263653315035e-01 -2.782576394137108999e-01 -4.764290149600906021e-01 -8.434555336100408862e-01 -4.748015066602626622e-01 -3.868795488046919417e-01 -1.092274041849928823e+00 6.502155339231714404e-01 -1.413856826380133880e+00 2.369099811590868576e+00 8.943248096165115069e-01 1.001008621446022984e+00 7.140549969269753827e-01 1.036360261444939646e-01 -2.661940233903417052e-01 -1.002344566647587643e+00 -2.561399815962703275e-01 -4.010360427997198274e-01 1.440108303857074112e+00 -3.798702073718469158e-02 -2.998307375820146725e-01 4.294277065464497389e-01 -7.980863614819148077e-01 2.388529123944959920e-01 -3.101676007236075366e-02 2.355624145712419681e-01 -5.722000365403291378e-01 2.757873234982690103e-01
-8.492508001310712651e-02 3.661626279884302448e-01 -5.808122036826729798e-03 -4.000122295216921274e-03 -5.146114395373810879e-01 4.785131511810077065e-02 4.468340749348149732e-01 8.235762782030746632e-01 8.728818092680674656e-01 -2.428417218358120688e-01 -1.561184122731003876e-01 -4.268406625475762439e-01 -5.877253858573608936e-01 -1.084995248805990659e-01 7.863616168549393548e-02 -1.019871262663807565e+00 -1.511460530292311200e+00 1.064154915038083349e+00 -2.412414672294725393e-01 2.225469761583051542e-01 4.355870412748349407e-01 2.798913183611211331e-01 -7.828700587646293396e-01 1.639908730365177369e+00 9.468956416937974740e-01 3.074293758589681236e-01 -3.624381279518888027e-02 -2.232997951633440559e-01 1.011676128453899759e+00 2.129135668410929161e-01 -1.654357815899731854e+00 2.214995087312120692e+00 -4.321338440436612416e+00 6.970363508950304654e-01 -1.850982930006117355e+00 1.578328238597122013e-01 -5.894871057421035426e-02 1.437313000502298488e+00 -1.893053891001511557e+00 -1.155967980414917273e-01 -7.020083501844575080e-01 -3.389259037808516339e-01 -9.797913639549641340e-01 -1.802362340822758036e+00 3.654509466339400103e-01 3.848087823202031577e-01 -8.732515339023727563e-01 9.483565425089034440e-01 -1.591794134283565532e+00 1.410998273887639876e+00 -1.185289355064044869e+00 -4.208391935531713424e-01 -7.567368520330159942e-01 1.864152634608611248e-01 3.982539549151829394e+00 -5.583364426172070516e+00 -2.892516765228171582e+00 3.492833357477186929e-01 -1.855462305930224876e+00 7.584240099261394530e-01 6.124408863069438214e-01 -4.503955670310576948e-02 -7.364153668826526299e-03 -5.015286382216709304e-01 -7.121132998210827347e-01 7.509456992770404682e-01 8.864448926539323370e-01 9.449524019260091556e-02 -1.570542938230804486e-01 1.387958618477279416e+00 -8.573446328765030322e-02 2.917996397536694320e-02 -2.810267175162617717e-02 6.623789087491209759e-01 -2.537416565692884318e-01 5.035963193823685957e-01 6.030856703515663497e-01 1.281107170721782484e+00 1.803346044891500632e-01 3.575890273934757661e-03 2.124276283439878732e-01 -7.650332877073995341e-01 9.202163326511517694e-01 -2.876668485354333948e-01 1.766690855590826059e+00 -7.160162344168785609e-02 1.204154567384988939e+00 2.090013762739235670e-01 1.296992988701745897e-01 -6.662520185482692092e-01 5.388199184439529388e-01 -5.171162082351573597e-01 1.207552537320300878e+00 1.051231522118248884e-01 9.838274816944111989e-02 5.276741862484487511e-01 1.486680238043114333e+00 1.814508232147224565e+00 -3.400232506092348145e-02 9.822930473289493980e-01 1.491100992815190374e+00 -7.032383659358598660e-01 -1.680658144336698856e-01 7.646337382764465396e-01 4.970425774293489307e-01 -2.137100945998396673e-01 -5.436093694090705641e-01 1.412841754852847687e-01 -9.378654131777536263e-01 7.010369874108793309e-02 -2.191162503687436924e+00 3.540614738589355215e-02 -2.461311912178023309e-01 -6.186094770067024351e-01 7.787274973543879542e-01 -1.567969263968359339e+00 8.931395310600806492e-02 -8.000537696194003345e-01 1.123684180705660340e+00 -5.412203003534620249e-01 5.903787643177438316e-01 -3.452477322289036477e-01 2.395085437001138670e-02 -1.081277433637663377e+00 5.157195849990332537e-01 6.208386234458032060e-01 -6.446043583883459549e-01 -2.533667897286645543e-01 6.134909248371960694e-02 -3.933325035138676012e-02 9.411574536629031817e-02 2.854351309931732472e-01 -3.039485135578005703e+00 6.040154326760272419e+00 5.468191345931229241e-01 -1.496690571083477972e-01 -1.099192880451567156e-01 3.948494543778462429e-01 -2.170700122083944195e-01 1.414920234646814379e+00 1.762244389787157028e-01 -8.244139436123699705e-01 6.914529432743253823e-01 7.204745272950802137e-02 4.827297603622364430e-02 -1.100833244267191563e-01 -1.223418300695622157e-01 4.355860128335712345e-01 -7.494729713874015431e-01 -1.358704606730924691e-01 -2.678369583091253503e-01 9.754235739079694101e-01 -6.558210530310465414e-01 -3.992372990294834612e-01 -1.783224591566929806e-01 2.731966799549726543e-01 -3.261454641966735069e-01 -2.342398391061053242e-01 2.442645703241608235e-01 -3.517027438206067336e-01 -1.300633670775294959e-01 6.617191636784481856e-01 -6.940466721414129125e-01 5.135176922534208099e-01 -7.354897697453095518e-01 -1.405791789990085972e-01 -3.695965933679725146e-01 -7.676583840330304387e-01 -1.053466839204931782e+00 -8.050720487656942703e-01 -1.614987541662851411e+00 1.580913225713467929e+00 -2.098593533981772286e+00 3.448417550400524334e+00 1.173012337478454681e+00 7.541276965469727589e-01 8.250906579638940253e-01 2.103645751689769416e-01 -2.150804925837390413e-01 -8.769575219961674994e-01 -2.014284490285630502e-01 -1.126605982335872752e-01 1.132568884782888530e+00 -5.758792851612671848e-01 2.095263955390497257e-01 5.272818359063417143e-02 -8.455072739311511598e-02 -2.795581033916776925e-01 -2.119422040675147390e-01 1.311617423471763966e-01 -4.997864587209388532e-01 1.525913729591920620e-01
-2.748015625469988898e-01 -9.993805989255630795e-01 7.807607257327511263e-01 -1.076623736919356082e-02 4.253370814200259087e-01 2.978520165906283212e-01 7.414017643497714527e-01 -2.478219486553487338e-01 2.359398525150251114e-01 -3.470408195721895739e-01 -5.511529860784152302e-01 -1.060883443378208002e-01 4.828084361189106666e-01 -1.081137051405166360e+00 4.251128812245361654e-01 2.765160769777370131e+00 2.971990592322960811e+00 6.252590696855002683e+00 -7.979511214557363230e-01 -1.779666184794478218e-02 5.749398040668642074e-02 -1.117427144057222405e-01 -2.131177124319402205e-01 3.334463687277816057e-01 -2.509777206730561261e-01 -4.149966187340101142e-02 -7.277296661899531616e-01 5.463990163368956932e-01 -1.085761437547457658e-01 5.731503162680011698e-01 -1.508389090458228388e-01 4.859107291909049442e-01 -5.175630659642412035e-02 -2.947152707362996407e-02 -7.073773278016781685e-02 3.183632491541470988e-01 1.476640080206103045e+00 4.123303847578306813e-01 3.654180365135011321e-01 -2.935726724923130027e-01 8.994454186685451047e-01 1.105790331158294643e-01 1.621543340498398517e-02 -7.284017525557903161e-01 -6.482167583271427613e-01 2.076407484820295135e-01 7.899920145158510765e-02 1.050233934092445892e-01 2.958969497483073252e-01 3.438696209355264488e-02 -9.596334009655313468e-02 -3.492540251717028421e-01 -9.803467222373698498e-01 1.034478213932342322e-01 3.792531426136182965e-02 -6.827415315500330317e-01 -1.520632683702747567e-01 -3.658134721793993016e-01 5.393865895802594235e-01 -1.583672019403381537e+00 5.499841625822038393e-01 3.640527807359204143e-02 -6.637333658934327918e-01 2.092168347186717514e-01 -2.198704577694885615e-02 1.361733366252563526e-01 -1.763925891253329992e+00 -1.907237638690027604e+00 -7.929908463967156429e+00 -6.229885799075980668e-02 7.844569436345404378e-01 -5.864655453093108317e-01 -1.293069485280675668e-01 1.731792243968575673e-01 -5.174098282159477202e-01 1.236649197553307267e-01 4.722705127102616585e-01 -2.104617628683979613e-01 -5.733549760794803829e-01 4.066904128676212538e-01 2.820818982528326968e-01 5.620894304767534710e-02 -1.543141149200399687e+00 6.647108993145932621e-01 -5.491680944394465858e-01 8.607883684480507336e-01 2.853780525030371051e-01 5.521464603391632586e-01 7.287226262300693369e-01 -6.123771229485935885e-01 -6.311770292492916434e-01 1.545032452684370339e-01 -8.595007599858802694e-01 -1.208685879592914236e-01 -6.878163749658313675e-01 -3.406238603072439530e-01 -1.040871004827590873e+00 -1.967014244481528173e+00 -6.801616866400056471e-01 -4.019410711117884505e-01 -6.047800273335356830e-02 2.261850871286946035e-02 -8.612475674722990249e-01 -3.504598725534079362e-01 1.301079500063114791e+00 6.431923085332663659e-02 3.644446168573955425e-01 -8.372350066264646617e-01 7.368730232450054762e-02 1.060991429710898132e-01 -8.142046071874776692e-01 -3.542337377706076817e-01 1.295570654434029079e+00 -3.256682674503100783e-01 7.807067325664062141e-01 3.732275052495159229e-01 1.836796096993809774e-02 -8.564550311833903085e-02 1.022536982419355089e+00 7.375209412411454224e-01 3.379421997121088705e-01 6.151045491799639331e-01 -2.251396765841289782e-01 -4.692736348677980507e-01 -4.931735813952556335e-01 9.688492631296753421e-01 -4.793328188681880153e-01 -1.354107474282121748e+00 2.980890723019144484e-01 -1.388988088182257163e+00 -1.649516942871428471e-01 3.346475881237999106e-01 -4.509987478322261545e-01 -4.418960142070905150e-01 1.014714143946911840e+00 -1.608878086335756297e-01 -1.710812042188803173e-01 1.916458128839858555e+00 1.141302407994350537e-01 -2.142196872460101209e-01 4.387798371780360362e-01 6.957101758854709050e-01 1.691133332828261393e+00 -3.067588321550263619e-01 1.895895474213154241e-01 -1.051811562990983662e+00 -1.806770754299669435e-01 -2.832003281271219808e-01 3.006807442864745661e-01 7.174658223780839839e-01 -3.245832619170914146e-01 8.834511001352598480e-01 9.287801630541010767e-02 9.475337894979320164e-02 1.701304102705764043e-01 8.677113208147435586e-02 1.892193085663782526e-01 9.303536781875840211e-02 1.057458733970039200e-01 9.723639611484192757e-01 3.201213694944667898e-01 -2.757050481971718980e-01 1.593374334285262706e-01 -4.650611394516241948e-01 6.919640785823912843e-01 -2.288862881078403411e-01 2.506820952318014939e+00 -6.869936219548598844e-02 4.200678626053855891e-01 -1.511469272043052814e-01 -8.496590913127658462e-01 5.858531085367688629e-01 2.725374491049317172e-01 6.266292619811468338e-03 -3.827359589531868500e-01 -6.589505997965291462e-01 4.313889440363529726e-01 -2.389511285351806902e-01 -2.399893399909003022e-01 1.515539842564834094e+00 3.243523768533875251e-01 5.934157513694923031e-02 1.274938065801391740e-01 4.374608612573224753e-01 -1.715498134806917596e+00 -1.699457022196133149e+00 -4.149760499087358501e-02 -1.733077795548218503e-02 2.735293807037842209e-02 5.049651747043724104e-01 -1.409334770143581550e-01 -8.313656923344470151e-01
1.283802715273977713e+00 -8.076318390710793826e-01 1.741586604343559053e+00 1.439123571347067643e-01 -6.879192190922027716e-01 7.612573656076723760e-02 -4.818170187406900506e-01 -5.311935122528791409e-01 -6.054875949229712173e-01 1.512269399346222620e+00 1.564084327094678317e-01 4.025082564687268993e-01 -1.664321354862596525e-01 -2.600187478223689452e-01 -3.166447238024804323e-01 7.460333495809090554e-01 -8.881793588451865062e-01 -1.860953668057827581e+00 -7.569363696381766760e-01 -4.298041160489691759e-01 1.967467272858194338e+00 6.680147668742755229e-01 2.511350721864044622e-01 -1.948649368835381479e-01 -1.378872339912363132e-01 2.673546193564432794e-01 1.703734309411921055e+00 -9.928947340959486390e-01 -7.532020994096297883e-01 -3.597055595141998574e-01 9.676706694414588528e-02 9.330224832669227475e-02 -1.109143049678003312e-01 -1.291982422864929703e+00 -8.915917269581906390e-02 -3.839659747045892635e-01 -1.205955368037752579e-01 -7.748379324950202540e-02 3.106124015701640095e-01 -3.594751886711278210e-01 2.319171045120064778e-01 3.541026115094841331e-01 4.928239113655926706e-01 3.837119497124517609e-01 -3.521922818621346929e-01 -2.603133962444230676e-01 1.022674279328060765e+00 4.279488080092284652e-01 1.953709299852855741e-01 -7.831436241407772059e-01 -1.607993626848961966e-01 -2.086949007773367115e-01 -6.475117618408665621e-01 -7.663049553299824401e-01 -6.835879387100699534e-01 -2.352425693382267646e-01 2.322626607766144768e-01 4.094754318097596490e-01 -1.971161948098087979e-02 1.175044537415554480e+00 -4.731344033717817532e-01 4.660124476205599470e-02 -2.118177626746052811e-01 3.421804061598756053e-01 -7.179188507547501485e-02 1.086939002794410802e+00 -2.270469209076872441e-01 6.532658907113482634e-03 6.185698820180494106e-01 1.466616891649942911e+00 1.495169506454444130e+00 2.318116892824757524e-01 -8.161751006487544258e-01 3.312115658617303393e-01 8.183039740646431692e-01 -1.149645123525601553e+00 -2.848895429027728521e-01 2.529888375642495579e-01 1.076521921234248280e+00 -1.102563082472759026e+00 -9.834058207762881310e-01 5.918597197374924068e-01 8.605821659746758501e-01 -7.553664540491166202e-01 -9.836361916193602228e-01 -2.837274042747756075e-01 -2.485449428637399039e-01 -1.300487632115847392e+00 7.253107723376969185e-01 -1.427625598018741060e-01 1.475844066667988119e-01 -7.047974828916507839e-01 -2.643330589236506101e-01 -8.729100914028197211e-01 5.515993295868672208e-02 -1.865517376165560126e+00 -1.377751338934914312e-02 -2.953832433370820465e-01 -4.856474482273941407e-01 -8.059189701463630451e-01 -3.556463018463192904e-01 -3.811151355215730563e-01 6.197284211016235861e-02 -1.023022406695828224e+00 2.190240506094516815e-01 -1.842437097325282935e-01 6.099839401279302242e-01 1.103737048175288837e+00 -5.701164145400438969e-03 -8.217811339772612689e-02 5.758772282787397723e-01 2.160319035968011558e+00 2.004922589462038829e+00 -1.724944882034765481e+00 7.947608966556943821e-01 -5.945969161608681830e-01 -3.590854094321800638e-02 4.716616754821427726e-01 8.761599657961570697e-01 -4.432335020705510109e-01 -7.357293965597550001e-01 5.295001837121735555e-01 -1.717959708971617677e-02 7.158228874593003388e-01 7.826808255721058316e-01 -9.919758218268197592e-01 -3.637044476799003334e+00 -1.623065947789327446e+00 -6.740820561095582919e-01 1.658695781150079096e-01 -1.052861601521235979e+00 -8.077218276816543474e-01 -2.966646811516701066e-01 1.390380597653326555e+00 4.696377030751529985e-02 4.767288055884633113e-02 -1.935901839371642064e-01 -6.034631082953494374e-01 2.100143909186821811e-01 -9.996937592903639702e-01 1.734471333460551601e-01 1.319542077629314747e+00 -1.575534477904241948e+00 -4.943784003356969103e-01 -6.685073902395948231e-01 9.481513684767925998e-01 1.082627777016920145e+00 1.318732180134139620e+00 -3.072092894285332609e-01 -3.917188791710997653e-01 9.854524188910797344e-02 1.006324634338162244e-01 3.014119660249755528e-01 -1.797607342639974681e-01 1.481670186426929936e-01 1.024846861497657469e-01 5.930460267351870263e-01 1.220569518395133307e-01 2.259012373399094387e-01 -1.602085231788923092e-01 -7.177671556683522525e-01 -8.561310721853200578e-02 -3.063114602053106372e-01 5.359464535531349716e-02 -5.519747106481229793e-01 1.722131066737242922e+00 1.198405066500193739e+00 4.790088598701180977e-01 1.462984951327136018e+00 1.469339175674994613e-01 -7.851547410319706932e-01 -1.030986655842032196e-01 -2.014562169426833277e-02 2.587033714460783007e-01 5.108031215378467937e-01 -5.092326917281550513e-03 6.309733978790762476e-01 -1.496253483546399199e-01 -5.427321090111221213e-01 4.742430630540657166e-01 -3.100673277003953565e-01 7.461480207818131927e-01 4.365609751515724390e-01 4.223859692137976740e-02 1.077585329500929001e+00 3.821446052265511373e-01 -2.682256062626829696e+00 5.190327085300889820e-01 -2.312984970918823269e-01 6.524873606747164656e-01 8.650111482768616522e-01 3.973053721155960227e-01
-1.293624843563081529e-02 3.567169092018459553e-01 9.380926986970345230e-03 -1.771402659240533251e-01 -6.195705553676434940e-01 5.194605400957941210e-02 4.836908387231775297e-01 8.161396194251562264e-01 8.479811893910158549e-01 -2.272382109827380814e-01 -1.716427331488683261e-01 -4.801134057873472361e-01 -9.989887628040878820e-01 -2.648560213062493007e-01 3.548605727208415939e-01 -6.254506682929302785e-01 -1.092682333031623543e+00 8.090845123560758134e-01 -2.212202869281136297e-01 1.776611714241246587e-01 3.009008307169094842e-01 3.262647633832643779e-01 -7.938687238594223095e-01 2.132353146904459429e+00 1.578099410415945369e+00 5.666248564497337048e-01 -4.602341503803809575e-01 -1.877959458573976170e-01 7.967488736184542564e-01 1.756474834297719889e-01 -1.401621974886356314e+00 1.928936720913136726e+00 -3.788636719070495928e+00 6.359690513175685345e-01 -1.722477137222483190e+00 2.891040952014741761e-01 -1.596732195011290045e-01 1.488636847547330833e+00 -1.544251865765211118e+00 -1.439972035389631977e-01 -8.142051214081096333e-01 -4.139491513069170625e-01 -8.801693440627472720e-01 -1.150439594401820864e+00 1.157824316895921524e-01 2.688710559997901650e-01 -2.193210130243491651e+00 1.491239318165159977e+00 -1.189046251000393406e+00 1.310568413382775077e+00 -8.826401741988209038e-01 -6.131613094121757257e-01 -5.922227595035836067e-01 2.104771894873536664e-01 3.991439679848013178e+00 -6.073528788429698011e+00 -2.863640191425600445e+00 2.254091281952221582e-01 -1.297151882876989681e+00 6.644743578239389326e-01 4.104833042481996763e-01 1.522720419468087671e-01 -3.147215386393346637e-01 -4.677309729722265996e-01 -6.189684030077386989e-01 6.061874492029287742e-01 6.771581239293279486e-01 6.875335536183099783e-02 9.419493534359632200e-03 1.466140723344843355e+00 -1.134946640984596106e-01 6.055822115192329574e-02 -1.023849273471854754e-01 8.486764156852867336e-01 -8.197859579256555618e-02 7.872100808975038277e-02 5.359978756163207292e-01 9.465043197929540186e-01 8.039016826075875977e-02 -8.954535239034379368e-02 1.768404752956806176e-03 -7.481797064982808054e-01 7.597213885803150157e-01 -2.929417237770242100e-01 1.308710020019243414e+00 5.448815512522852123e-01 6.151657414351550113e-01 7.833734807632174446e-01 -2.772266270468372665e-02 -1.286196412315272708e+00 5.776595169887567272e-01 -5.275831691966100800e-01 1.384813645092840995e+00 -1.328005635009051610e-01 3.346439885793769942e-01 1.198784047105872608e+00 1.273897797463144910e+00 1.206889706925837302e+00 -7.052947342426567345e-02 1.055962866151966661e+00 1.550983528056853356e+00 -9.515467673089453848e-01 -2.308259283312055488e-01 8.679946563828968564e-01 5.219447399682961564e-01 -1.014320765163541360e-01 -5.781469981477573850e-01 8.378762397543906837e-02 -7.660910395471297596e-01 2.703581820671210334e-01 -2.549011726720631810e+00 1.573155179040638604e-02 -3.396185589719631914e-01 -6.779474525992286171e-01 6.762885768408574139e-01 -1.624500623352209239e+00 -2.955020283030410089e-02 -4.586925169260731017e-01 1.228267915474667182e+00 -7.607092064141126597e-01 7.034363408791248773e-01 -3.997674605009282067e-01 1.473067275255959541e-01 -9.759475647318318625e-01 6.480604352550580760e-01 5.477478170542570135e-01 -7.693733098402740778e-01 -3.342300409707319453e-01 7.386162311870012043e-02 6.970157820697561735e-02 2.726963432801755849e-02 7.791008215331161890e-02 -3.521772666196845591e+00 5.930767257069088139e+00 7.761162849858171953e-01 -8.810861994493486560e-02 -1.356956256582610432e-01 3.888094188360519121e-01 -7.624796680495968815e-01 2.511614002827555314e+00 1.601195630095810507e-01 -5.274031919754600395e-01 7.093905015753990684e-01 -2.808955912551381884e-01 2.821569744650838096e-01 -1.506460763088764143e-01 -1.756809077708426925e-01 6.637436503060699655e-01 -9.847129696224690143e-01 -5.880267191476291205e-02 9.172616209005005072e-02 3.720550822088815601e-01 -6.294399919548782085e-01 -4.607062049204257992e-01 -2.040170356893319936e-01 1.645552301799809714e-01 -3.662397610832088812e-01 -4.176772508878814905e-01 4.403867766525897398e-01 -1.166483792336396180e-01 -2.256847504538975480e-01 7.129401665971090152e-01 -8.357514801035569318e-01 6.987152812580441630e-01 -3.210773056490892619e-01 -2.626129909100883841e-01 -4.700243969903095120e-01 -8.209923195279923425e-01 -6.675344848041209200e-01 -5.278243386729509767e-01 -1.284756080325440974e+00 1.083218102302292207e+00 -1.833512798259401722e+00 2.985143841865235625e+00 1.033403492811760804e+00 9.618754029204286127e-01 7.692411551378868229e-01 1.659117442068201720e-01 -2.689687579198429823e-01 -9.726344412007762452e-01 -2.442676556479519978e-01 -3.052233693483008548e-01 1.316189873330237736e+00 -1.803073507956616528e-01 -2.219453380190322678e-01 3.965628375231942671e-01 -5.943171801371378571e-01 6.880991963133528677e-02 -8.748641298038768721e-02 2.135902811926169431e-01 -5.533070563052648883e-01 2.409735582802749188e-01
-2.622381240694645066e-01 -1.034664361801074683e+00 7.952283232100525456e-01 6.427295099645947973e-02 5.134827252504545747e-01 3.200874309327642053e-01 8.383282396897931976e-01 -3.253324813777073166e-01 2.359830470481011355e-01 -4.383422354203256321e-01 -6.129756757640753007e-01 -1.135903091359850570e-01 5.871998523716028817e-01 -1.422106467977018340e+00 4.842040309137709553e-01 2.661287173700958242e+00 3.073888038511146004e+00 6.406051616902664669e+00 -6.022546898104851332e-01 2.393779316596221507e-01 2.118023360556495760e-01 -8.615303888198205806e-02 -2.404655082960001078e-01 3.391773576698297599e-01 -2.303898692353906763e-01 -8.166852075155566285e-03 -8.077871337019002507e-01 5.517808494699127930e-01 -1.586077543519209543e-01 5.303167660755627733e-01 -1.715311472717553354e-01 4.731966240682364822e-01 -3.907202627040331361e-02 -3.188167917514450915e-04 -5.513730725088501067e-02 3.093283926524166283e-01 1.591976682607875171e+00 5.107871806982592355e-01 5.503497734514543049e-01 -2.091546140222169947e-01 8.761651080024754901e-01 1.107502685862378905e-01 2.806101988044574017e-02 -6.240483886298556770e-01 -5.522457049211116908e-01 2.232452877763671795e-01 6.238473283627996024e-02 2.384883299665092327e-01 1.084028514018099132e-01 1.642261289755923837e-01 -1.532593455599745302e-01 -3.067542041693396282e-01 -1.093615643478444088e+00 6.879500723301142096e-02 8.373157392656663256e-02 -7.652230351205548953e-01 -7.381637170309668372e-02 -4.480815741877004488e-01 6.207954289127272096e-01 -1.584300911236143028e+00 4.750992404061079033e-01 -1.690094092931277714e-01 -5.829323353478200742e-01 2.257073761616993079e-01 -5.201701645677570679e-02 1.185191138923360060e-01 -1.782691344771693887e+00 -1.816736350145061296e+00 -8.249748554775997889e+00 -1.401631745078361357e-01 7.686667706921024301e-01 -5.912611669220106947e-01 -1.321588161523474247e-01 1.898132333961732865e-01 -5.184300419495523338e-01 1.603422205431752068e-01 2.461167930401103598e-01 -1.192698760148474812e-01 -5.725723322777938051e-01 4.652282611569777404e-01 1.992522673145435130e-01 -2.438974167930147985e-01 -1.472009009195597296e+00 8.854971840294195706e-01 -5.655871592146459736e-01 8.132867233596126066e-01 2.029901370875132893e-01 7.434776730405789902e-01 8.507014165335403666e-01 -6.548347778591443458e-01 -5.131381974271103097e-01 6.903669092998430956e-02 -8.675647679346643049e-01 -1.213426993818637334e-01 -6.238648118642827756e-01 -3.261012412223338042e-01 -9.577986617510648726e-01 -2.035181902543674148e+00 -7.420481396840159505e-01 -4.038889388652633361e-01 -2.749537718540286113e-02 2.961910839497296569e-02 -1.005979078073554245e+00 -3.922084172126278356e-01 1.351006209651391288e+00 1.348235074666312774e-02 3.429080283539535090e-01 -7.351956355438873381e-01 -1.208418484864348273e-03 2.907917673152294116e-02 -9.100162521976330465e-01 -4.174129414831069806e-01 1.304932555257620530e+00 -3.619856137958544773e-01 8.006764908045793661e-01 3.809865803636087733e-01 2.507854021567415895e-02 -1.164591460411162072e-01 9.048941004837037783e-01 6.550908597338093164e-01 3.824865619467361366e-01 5.604706639276670899e-01 -3.029340590952727119e-01 -5.602814307351435819e-01 -4.336592281260023274e-01 9.030691314612425691e-01 -5.499754208314622250e-01 -1.359938222026750188e+00 2.982268834312521988e-01 -1.272938775984731263e+00 -1.156682747093198543e-01 5.903396835497227713e-01 -5.565862412746179766e-01 -4.590843530475482437e-01 1.111408191561334080e+00 -1.447921886358143895e-01 -6.255905363047954693e-02 1.773773216353395021e+00 1.251170788196953598e-01 -1.559857433500812518e-01 4.057751001429155124e-01 4.313298086636894180e-01 1.646279923993887895e+00 -5.265336448869896158e-01 1.980407635058879789e-01 -9.912096330853528148e-01 -5.452384203707940497e-02 -2.714848394715200786e-01 3.639149696065826500e-01 6.657722506987464595e-01 -3.774184033991518916e-01 9.438046614757037434e-01 1.202695209231778029e-01 6.921923925429360192e-02 1.810632551244917010e-01 1.047652546520523170e-01 1.661991935400283504e-01 1.360967177511096249e-01 9.309193208826269106e-02 9.623073482511885768e-01 4.367003289428056934e-01 -3.159541254938962318e-01 1.904822344382194610e-01 -5.322353232530218081e-01 7.747206901909567955e-01 -1.684000578443770324e-01 2.841172863578496965e+00 8.721130494234410890e-02 4.641401702999680134e-01 -9.602144702795298303e-02 -1.015917420225457724e+00 3.951122211207252488e-01 1.873573156584234511e-01 -3.729282288417750529e-02 -1.465749915664631975e-01 -8.913706120864920424e-01 4.211189295769016128e-01 -2.889935377656248638e-01 -2.228339112708814240e-01 1.583441648560309778e+00 3.473154133896013129e-01 1.538856662895765615e-01 9.028583010021812294e-02 7.347096970467822397e-01 -1.978409373683482908e+00 -1.906283759417932711e+00 -9.527634133239194780e-02 -4.013234921329279781e-02 3.127489882955305361e-02 5.384414520589059228e-01 -8.236631814898585924e-02 -9.785736894987263623e-01