1.318109999999999893e+00 1.364060000000000050e+00 1.452020000000000088e+00 4.432649999999999757e+00 4.432839999999999669e+00 1.449759999999999938e+00 1.380500000000000060e+00 4.368430000000000035e+00 4.464010000000000034e+00 4.282630000000000159e+00 1.328500000000000014e+00 4.325949999999999740e+00 7.198929999999999829e+00 1.355320000000000080e+00 1.447699999999999987e+00 1.025079999999999991e+01 4.316069999999999851e+00 1.407310000000000061e+00 7.606939999999999813e+00 4.498700000000000365e+00 4.618640000000000079e+00 1.048300000000000054e+01 1.411829999999999918e+00 4.486089999999999911e+00 1.424020000000000064e+00 7.551789999999999559e+00 1.468620000000000037e+00 4.453100000000000058e+00 1.055910000000000082e+01 1.466679999999999984e+00 1.413129999999999997e+00 1.050029999999999930e+01 4.531959999999999766e+00 4.314119999999999955e+00 7.261980000000000324e+00 4.339610000000000412e+00 7.548300000000000232e+00 7.547250000000000014e+00 1.474920000000000009e+00 1.025880000000000081e+01 1.029410000000000025e+01 1.441370000000000040e+00 7.567639999999999922e+00 1.065339999999999954e+01 4.602500000000000036e+00 1.050660000000000061e+01 7.474849999999999994e+00 4.520979999999999777e+00 1.383580000000000032e+00 1.377439999999999998e+00 7.475570000000000270e+00 4.401030000000000442e+00 4.385989999999999611e+00 7.506689999999999863e+00 1.362370000000000081e+00 4.418910000000000338e+00 1.053930000000000078e+01 4.434120000000000061e+00 1.374859999999999971e+00 1.060769999999999946e+01 7.371749999999999581e+00 1.357750000000000012e+00 7.431750000000000078e+00 1.063990000000000080e+01 4.460619999999999585e+00 7.621699999999999697e+00 7.572009999999999685e+00 4.464620000000000033e+00 1.071160000000000068e+01 1.021059999999999945e+01 1.332619999999999916e+00 1.027640000000000065e+01 1.381799999999999917e+00 7.392610000000000348e+00 7.508449999999999847e+00 4.459290000000000198e+00 1.057099999999999973e+01 7.582180000000000142e+00 1.379790000000000072e+00 1.026510000000000034e+01 1.035539999999999949e+01 4.382150000000000212e+00 7.401130000000000209e+00 1.049070000000000036e+01 7.344409999999999883e+00 7.355470000000000397e+00 7.432489999999999597e+00 1.041840000000000011e+01 1.042360000000000042e+01 7.488760000000000083e+00 7.271189999999999820e+00 1.021359999999999957e+01 1.027490000000000059e+01 1.055509999999999948e+01 7.494720000000000049e+00 1.064939999999999998e+01 4.721989999999999910e+00 1.671130000000000004e+00 1.760920000000000041e+00 1.581150000000000055e+00 4.516569999999999752e+00 1.674260000000000081e+00 4.789450000000000429e+00 4.781060000000000088e+00 4.870709999999999873e+00 1.610570000000000057e+00 1.638349999999999973e+00 4.675449999999999662e+00 1.082000000000000028e+01 1.672900000000000054e+00 1.760049999999999892e+00 7.809610000000000163e+00 4.731569999999999609e+00 1.736960000000000059e+00 1.051179999999999914e+01 4.598139999999999894e+00 4.646419999999999995e+00 7.729059999999999597e+00 1.640039999999999942e+00 4.756820000000000270e+00 4.757159999999999833e+00 7.864760000000000417e+00 1.741319999999999979e+00 1.687030000000000030e+00 1.099189999999999934e+01 1.779360000000000053e+00 4.683609999999999829e+00 1.076839999999999975e+01 4.754529999999999923e+00 1.663880000000000026e+00 7.882419999999999760e+00 4.861769999999999925e+00 1.080850000000000044e+01 7.736959999999999837e+00 1.755719999999999947e+00 7.675279999999999880e+00 1.068490000000000073e+01 1.714199999999999946e+00 1.087090000000000067e+01 1.086430000000000007e+01 4.829579999999999984e+00 7.875329999999999941e+00 7.880919999999999703e+00 4.878930000000000433e+00 4.663230000000000430e+00 1.628169999999999895e+00 7.742689999999999628e+00 1.630649999999999933e+00 4.601409999999999556e+00 7.664189999999999614e+00 4.533590000000000231e+00 4.545569999999999666e+00 1.049639999999999951e+01 1.665650000000000075e+00 1.672050000000000036e+00 1.103100000000000058e+01 1.082949999999999946e+01 1.678029999999999911e+00 7.843600000000000350e+00 7.631899999999999906e+00 4.627030000000000420e+00 7.692980000000000373e+00 1.062049999999999983e+01 4.622099999999999653e+00 1.070620000000000083e+01 7.760309999999999597e+00 1.650069999999999926e+00 1.089559999999999995e+01 4.711310000000000109e+00 7.738489999999999647e+00 7.825020000000000309e+00 1.661599999999999966e+00 1.086669999999999980e+01 7.862549999999999706e+00 4.782790000000000319e+00 1.097550000000000026e+01 1.108869999999999933e+01 1.661820000000000075e+00 7.652580000000000382e+00 1.077469999999999928e+01 1.068939999999999912e+01 7.670580000000000176e+00 7.738500000000000156e+00 7.781679999999999708e+00 1.083990000000000009e+01 7.847990000000000244e+00 1.074579999999999913e+01 1.075000000000000000e+01 1.083290000000000042e+01 7.776089999999999947e+00 7.793359999999999843e+00 1.089639999999999986e+01
1.314419999999999922e+00 1.617350000000000065e+00 1.554610000000000047e+00 4.202040000000000219e+00 4.378519999999999968e+00 1.568349999999999911e+00 1.550049999999999928e+00 4.602520000000000167e+00 4.527160000000000295e+00 4.383630000000000138e+00 1.685559999999999947e+00 4.342389999999999972e+00 7.283050000000000246e+00 1.639909999999999979e+00 1.755319999999999991e+00 1.021349999999999980e+01 4.695789999999999687e+00 1.655410000000000048e+00 7.421859999999999680e+00 4.538330000000000197e+00 4.677330000000000432e+00 1.041830000000000034e+01 1.668320000000000025e+00 4.369690000000000296e+00 1.674279999999999990e+00 7.937310000000000088e+00 1.736709999999999976e+00 4.674380000000000202e+00 1.050409999999999933e+01 1.925140000000000073e+00 1.562929999999999930e+00 1.066699999999999982e+01 4.661139999999999617e+00 4.720360000000000333e+00 7.728989999999999583e+00 4.573199999999999932e+00 7.399499999999999744e+00 7.810410000000000075e+00 1.836410000000000098e+00 1.041970000000000063e+01 1.058750000000000036e+01 1.856950000000000101e+00 7.164640000000000342e+00 1.074489999999999945e+01 4.884870000000000267e+00 1.080860000000000021e+01 7.703380000000000116e+00 4.611209999999999809e+00 1.630560000000000009e+00 1.839949999999999974e+00 7.543989999999999974e+00 4.674879999999999924e+00 4.132550000000000168e+00 7.475150000000000183e+00 1.546370000000000022e+00 4.323870000000000324e+00 1.052020000000000088e+01 4.284930000000000128e+00 1.350519999999999943e+00 1.043280000000000030e+01 7.733240000000000336e+00 1.846119999999999983e+00 7.271029999999999660e+00 1.076319999999999943e+01 4.559110000000000440e+00 7.635279999999999845e+00 7.376339999999999897e+00 4.409250000000000114e+00 1.038020000000000032e+01 9.993290000000000006e+00 1.570650000000000102e+00 1.028219999999999956e+01 1.817269999999999941e+00 7.551280000000000214e+00 7.701900000000000190e+00 4.805699999999999861e+00 1.036829999999999963e+01 7.388180000000000192e+00 1.602510000000000101e+00 1.033999999999999986e+01 1.057310000000000016e+01 4.685220000000000162e+00 7.465720000000000134e+00 1.059110000000000085e+01 7.739359999999999573e+00 7.512100000000000222e+00 7.525140000000000384e+00 1.066869999999999941e+01 1.062139999999999951e+01 7.518279999999999852e+00 7.362309999999999910e+00 1.006569999999999965e+01 1.048509999999999920e+01 1.077529999999999966e+01 7.494699999999999918e+00 1.062400000000000055e+01 4.303869999999999862e+00 1.682730000000000059e+00 1.782520000000000104e+00 1.521220000000000017e+00 4.472520000000000273e+00 1.764829999999999899e+00 4.487940000000000040e+00 4.748630000000000351e+00 4.766119999999999912e+00 1.608260000000000023e+00 1.782489999999999908e+00 4.287620000000000431e+00 1.037310000000000088e+01 1.702229999999999910e+00 1.697549999999999892e+00 7.498990000000000045e+00 4.665650000000000297e+00 1.803160000000000096e+00 1.047910000000000075e+01 4.694379999999999775e+00 4.556000000000000050e+00 7.582399999999999807e+00 1.693999999999999950e+00 4.447309999999999874e+00 4.542559999999999931e+00 7.773279999999999745e+00 1.783449999999999980e+00 1.656579999999999941e+00 1.085650000000000048e+01 1.951459999999999972e+00 4.416839999999999655e+00 1.077340000000000053e+01 4.355450000000000266e+00 1.764259999999999939e+00 7.851300000000000168e+00 4.928270000000000373e+00 1.067210000000000036e+01 7.708169999999999966e+00 1.877459999999999907e+00 7.761169999999999902e+00 1.071860000000000035e+01 1.968499999999999917e+00 1.075670000000000037e+01 1.085030000000000072e+01 4.839059999999999917e+00 7.862560000000000215e+00 7.721199999999999619e+00 4.652770000000000294e+00 4.697289999999999743e+00 1.520029999999999992e+00 7.807140000000000413e+00 1.797989999999999977e+00 4.665930000000000355e+00 7.682089999999999641e+00 4.353100000000000414e+00 4.532099999999999795e+00 1.059420000000000073e+01 1.524450000000000083e+00 1.344340000000000090e+00 1.080269999999999975e+01 1.086909999999999954e+01 1.606649999999999912e+00 7.800010000000000332e+00 7.616909999999999847e+00 4.590360000000000440e+00 7.567809999999999704e+00 1.053509999999999991e+01 4.549920000000000186e+00 1.071279999999999966e+01 7.418479999999999741e+00 1.604470000000000063e+00 1.059500000000000064e+01 4.930889999999999773e+00 7.563740000000000130e+00 7.896300000000000097e+00 1.834610000000000074e+00 1.070560000000000045e+01 8.040889999999999205e+00 4.653450000000000308e+00 1.063109999999999999e+01 1.069599999999999973e+01 1.888130000000000086e+00 7.422609999999999708e+00 1.085009999999999941e+01 1.092149999999999999e+01 7.486830000000000318e+00 7.681119999999999948e+00 7.804100000000000037e+00 1.080100000000000016e+01 8.050209999999999866e+00 1.068510000000000026e+01 1.043779999999999930e+01 1.059839999999999982e+01 7.837959999999999816e+00 7.372630000000000017e+00 1.057399999999999984e+01
1.425229999999999997e+00 2.013490000000000002e+00 1.712550000000000017e+00 4.391379999999999839e+00 4.379159999999999719e+00 1.523719999999999963e+00 1.380779999999999896e+00 4.596199999999999619e+00 4.665530000000000399e+00 4.470959999999999823e+00 1.754999999999999893e+00 4.307769999999999655e+00 7.142220000000000013e+00 1.642230000000000079e+00 1.673070000000000057e+00 1.047789999999999999e+01 4.530890000000000306e+00 1.468129999999999935e+00 7.391040000000000276e+00 4.680550000000000210e+00 4.529040000000000177e+00 1.061139999999999972e+01 1.496609999999999996e+00 4.473290000000000433e+00 1.700430000000000108e+00 7.940549999999999997e+00 1.275670000000000082e+00 4.554829999999999934e+00 1.015840000000000032e+01 1.904160000000000075e+00 1.932490000000000041e+00 1.095509999999999984e+01 4.977669999999999817e+00 4.607359999999999900e+00 7.964839999999999698e+00 4.612599999999999589e+00 7.622749999999999915e+00 7.752570000000000405e+00 1.111350000000000060e+00 1.022659999999999947e+01 1.055809999999999960e+01 1.604910000000000059e+00 7.579489999999999839e+00 1.089700000000000024e+01 4.670040000000000191e+00 1.098620000000000019e+01 8.173439999999999372e+00 4.664620000000000211e+00 1.363399999999999945e+00 1.926390000000000047e+00 7.511449999999999960e+00 4.725550000000000139e+00 3.984459999999999891e+00 7.298770000000000202e+00 1.263649999999999940e+00 3.932100000000000151e+00 1.086880000000000024e+01 4.401010000000000311e+00 1.642039999999999944e+00 1.057579999999999920e+01 7.868509999999999671e+00 1.568089999999999984e+00 7.425340000000000273e+00 1.097809999999999953e+01 4.515579999999999927e+00 7.568459999999999965e+00 7.147420000000000329e+00 4.246710000000000207e+00 1.056750000000000078e+01 1.008109999999999928e+01 1.701540000000000052e+00 1.006359999999999921e+01 1.517789999999999973e+00 7.864639999999999631e+00 7.592450000000000365e+00 5.072519999999999918e+00 1.050520000000000032e+01 7.488990000000000258e+00 1.555180000000000007e+00 1.025249999999999950e+01 1.092510000000000048e+01 4.806060000000000443e+00 7.362720000000000375e+00 1.053580000000000005e+01 7.762800000000000367e+00 7.615319999999999645e+00 7.582010000000000360e+00 1.080550000000000033e+01 1.071509999999999962e+01 7.804439999999999600e+00 7.607510000000000439e+00 9.954240000000000421e+00 1.036459999999999937e+01 1.063419999999999987e+01 7.563030000000000364e+00 1.047180000000000000e+01 4.367849999999999788e+00 1.558759999999999923e+00 1.471549999999999914e+00 1.289520000000000000e+00 4.745409999999999684e+00 1.767390000000000017e+00 4.188629999999999853e+00 4.506219999999999892e+00 4.734420000000000073e+00 1.521430000000000060e+00 1.406269999999999909e+00 4.517330000000000290e+00 1.023010000000000019e+01 1.271810000000000107e+00 1.410360000000000058e+00 7.252580000000000027e+00 4.590410000000000323e+00 1.628130000000000077e+00 1.030250000000000021e+01 4.704839999999999911e+00 4.368829999999999991e+00 7.165549999999999642e+00 1.553120000000000056e+00 4.498980000000000423e+00 4.405899999999999928e+00 7.363559999999999661e+00 1.967049999999999965e+00 1.671699999999999964e+00 1.106220000000000070e+01 1.885340000000000016e+00 4.588020000000000209e+00 1.067500000000000071e+01 4.640270000000000117e+00 1.754829999999999890e+00 7.707679999999999865e+00 4.639009999999999856e+00 1.061129999999999995e+01 7.609390000000000320e+00 1.642320000000000002e+00 7.733270000000000088e+00 1.083189999999999920e+01 1.741619999999999946e+00 1.053630000000000067e+01 1.119710000000000072e+01 4.799809999999999910e+00 7.711909999999999599e+00 7.461389999999999745e+00 4.591669999999999696e+00 4.365520000000000067e+00 1.257130000000000081e+00 7.522260000000000169e+00 1.884349999999999969e+00 4.698360000000000092e+00 7.714380000000000237e+00 4.269770000000000287e+00 4.348060000000000258e+00 1.047049999999999947e+01 1.544170000000000043e+00 1.109560000000000102e+00 1.061870000000000047e+01 1.057770000000000010e+01 1.294459999999999944e+00 7.597439999999999749e+00 7.616839999999999833e+00 4.248610000000000220e+00 7.527210000000000178e+00 1.066559999999999953e+01 4.440920000000000201e+00 1.045689999999999920e+01 7.288739999999999775e+00 1.473209999999999908e+00 1.067130000000000045e+01 4.643709999999999560e+00 7.662010000000000431e+00 7.675860000000000127e+00 1.853669999999999929e+00 1.042159999999999975e+01 7.920919999999999739e+00 4.595780000000000420e+00 1.052260000000000062e+01 1.064380000000000059e+01 1.683030000000000026e+00 7.047069999999999723e+00 1.084239999999999959e+01 1.080080000000000062e+01 7.577799999999999869e+00 7.666850000000000165e+00 7.636050000000000004e+00 1.055300000000000082e+01 7.490020000000000344e+00 1.045190000000000019e+01 1.044640000000000057e+01 1.086030000000000051e+01 7.853550000000000253e+00 7.179990000000000094e+00 1.056300000000000061e+01
1.214860000000000051e+00 1.686660000000000048e+00 1.555239999999999956e+00 3.998689999999999856e+00 4.375140000000000029e+00 1.792249999999999899e+00 1.637189999999999923e+00 4.757749999999999702e+00 4.818900000000000183e+00 4.567199999999999704e+00 1.886619999999999964e+00 4.873569999999999958e+00 7.476549999999999585e+00 1.703500000000000014e+00 1.644030000000000102e+00 1.041089999999999982e+01 4.608109999999999928e+00 1.280010000000000092e+00 7.952189999999999870e+00 4.502019999999999911e+00 4.753510000000000346e+00 1.063449999999999918e+01 1.844000000000000083e+00 4.667989999999999640e+00 1.495549999999999935e+00 7.935249999999999915e+00 1.897359999999999935e+00 4.478830000000000311e+00 1.076950000000000074e+01 1.760350000000000081e+00 1.538110000000000088e+00 1.075680000000000014e+01 4.807070000000000398e+00 4.659900000000000375e+00 7.955280000000000129e+00 4.420169999999999710e+00 8.043110000000000426e+00 7.973869999999999791e+00 1.496359999999999912e+00 1.060960000000000036e+01 1.088679999999999914e+01 1.968199999999999950e+00 7.527330000000000076e+00 1.049140000000000050e+01 4.617759999999999643e+00 1.092670000000000030e+01 8.122159999999999158e+00 4.954379999999999562e+00 1.399589999999999890e+00 1.738699999999999912e+00 7.649200000000000443e+00 4.833300000000000374e+00 4.362470000000000070e+00 8.142780000000000129e+00 8.860019999999999563e-01 4.151659999999999684e+00 1.086030000000000051e+01 4.249990000000000379e+00 1.203100000000000058e+00 1.064569999999999972e+01 7.950549999999999784e+00 1.613669999999999938e+00 7.955580000000000318e+00 1.079349999999999987e+01 4.673709999999999809e+00 7.188060000000000116e+00 7.453990000000000116e+00 4.297930000000000028e+00 1.097259999999999991e+01 1.062659999999999982e+01 1.355089999999999906e+00 1.046499999999999986e+01 1.659680000000000044e+00 7.583560000000000301e+00 7.796590000000000131e+00 4.573929999999999829e+00 1.065729999999999933e+01 7.659329999999999750e+00 1.471559999999999979e+00 1.053710000000000058e+01 1.122600000000000087e+01 4.714089999999999669e+00 7.449480000000000324e+00 1.050810000000000066e+01 7.571550000000000225e+00 7.646829999999999572e+00 7.728309999999999569e+00 1.074450000000000038e+01 1.058130000000000059e+01 7.816869999999999763e+00 7.964730000000000310e+00 1.070969999999999978e+01 1.102590000000000003e+01 1.097830000000000084e+01 7.541960000000000441e+00 1.112710000000000043e+01 4.234429999999999694e+00 1.304089999999999971e+00 1.556240000000000068e+00 1.150570000000000093e+00 4.416190000000000282e+00 1.564119999999999955e+00 4.440520000000000245e+00 4.486650000000000027e+00 4.613509999999999778e+00 1.286329999999999973e+00 1.632530000000000037e+00 4.453050000000000175e+00 1.057929999999999993e+01 1.579960000000000031e+00 1.595620000000000038e+00 7.558119999999999727e+00 4.362280000000000157e+00 1.374319999999999986e+00 1.095219999999999949e+01 4.676730000000000054e+00 4.388569999999999638e+00 7.456310000000000215e+00 1.235190000000000010e+00 4.346700000000000230e+00 4.611419999999999852e+00 7.623850000000000016e+00 1.510089999999999932e+00 1.513789999999999969e+00 1.086700000000000088e+01 1.772029999999999994e+00 4.459539999999999615e+00 1.053490000000000038e+01 4.371500000000000163e+00 1.367949999999999999e+00 7.737169999999999881e+00 4.881070000000000242e+00 1.086630000000000074e+01 7.401889999999999858e+00 1.752380000000000049e+00 7.424000000000000377e+00 1.058319999999999972e+01 1.488150000000000084e+00 1.105470000000000041e+01 1.089649999999999963e+01 4.820549999999999891e+00 7.471750000000000114e+00 7.557920000000000194e+00 4.734379999999999811e+00 4.673510000000000275e+00 1.314140000000000086e+00 7.759100000000000108e+00 1.607569999999999943e+00 4.510790000000000077e+00 7.527720000000000411e+00 4.334760000000000169e+00 4.548569999999999780e+00 1.064310000000000045e+01 1.089099999999999957e+00 1.371809999999999974e+00 1.056509999999999927e+01 1.078839999999999932e+01 1.507130000000000081e+00 7.397149999999999892e+00 7.923689999999999678e+00 4.697029999999999816e+00 7.331170000000000186e+00 1.053120000000000012e+01 4.328870000000000218e+00 1.054199999999999982e+01 7.378510000000000346e+00 1.198900000000000077e+00 1.059370000000000012e+01 4.713040000000000340e+00 7.527339999999999698e+00 7.692359999999999864e+00 1.521840000000000082e+00 1.075300000000000011e+01 7.427139999999999631e+00 4.410470000000000113e+00 1.059919999999999973e+01 1.066179999999999950e+01 1.589679999999999982e+00 7.113349999999999618e+00 1.072029999999999994e+01 1.096649999999999991e+01 7.661970000000000169e+00 7.612899999999999778e+00 7.584929999999999950e+00 1.064039999999999964e+01 7.393670000000000186e+00 1.075210000000000043e+01 1.045459999999999923e+01 1.080610000000000070e+01 7.479569999999999830e+00 7.495289999999999786e+00 1.052459999999999951e+01
1.511749999999999927e+00 1.640220000000000011e+00 1.731980000000000075e+00 4.150660000000000238e+00 4.318970000000000198e+00 1.875590000000000090e+00 1.713149999999999951e+00 4.543490000000000251e+00 4.671429999999999971e+00 4.437999999999999723e+00 1.331490000000000062e+00 4.825969999999999871e+00 7.387059999999999960e+00 1.804440000000000044e+00 1.628390000000000004e+00 1.038160000000000061e+01 4.489340000000000330e+00 1.501519999999999966e+00 7.539080000000000226e+00 4.196679999999999744e+00 4.640340000000000131e+00 1.042880000000000074e+01 2.000680000000000014e+00 4.624869999999999592e+00 2.000030000000000197e+00 8.177849999999999397e+00 2.176000000000000156e+00 4.568559999999999732e+00 1.067810000000000059e+01 1.759020000000000028e+00 1.446450000000000014e+00 1.077490000000000059e+01 4.753129999999999633e+00 4.937210000000000321e+00 7.900610000000000355e+00 4.601600000000000357e+00 8.022209999999999397e+00 7.983590000000000408e+00 2.024880000000000013e+00 1.107600000000000051e+01 1.092060000000000031e+01 1.887960000000000083e+00 7.651640000000000441e+00 1.070839999999999925e+01 4.659749999999999837e+00 1.072959999999999958e+01 8.087009999999999366e+00 4.941530000000000200e+00 1.748909999999999965e+00 1.328100000000000058e+00 7.698199999999999932e+00 4.815739999999999910e+00 4.125469999999999970e+00 7.868529999999999802e+00 1.272620000000000084e+00 4.087110000000000021e+00 1.072109999999999985e+01 4.363629999999999676e+00 1.039150000000000018e+00 1.059280000000000044e+01 7.663579999999999615e+00 1.265980000000000105e+00 7.630189999999999806e+00 1.080400000000000027e+01 4.610109999999999708e+00 7.398930000000000007e+00 7.363470000000000404e+00 4.107599999999999696e+00 1.073380000000000045e+01 1.056090000000000018e+01 1.141410000000000036e+00 1.059239999999999959e+01 2.017729999999999801e+00 7.551789999999999559e+00 7.952090000000000103e+00 4.473010000000000375e+00 1.042399999999999949e+01 7.548189999999999955e+00 1.644570000000000087e+00 1.083590000000000053e+01 1.087020000000000053e+01 4.816810000000000258e+00 7.706500000000000128e+00 1.051060000000000016e+01 7.616220000000000212e+00 7.475500000000000256e+00 7.632670000000000066e+00 1.066230000000000011e+01 1.052130000000000010e+01 7.686899999999999622e+00 7.572809999999999597e+00 1.060730000000000040e+01 1.060689999999999955e+01 1.090729999999999933e+01 7.564989999999999881e+00 1.093929999999999936e+01 4.323190000000000310e+00 1.321129999999999916e+00 1.647389999999999910e+00 1.298820000000000086e+00 4.461079999999999934e+00 1.636120000000000019e+00 4.591590000000000060e+00 4.462959999999999816e+00 4.644849999999999923e+00 1.293139999999999956e+00 1.630400000000000071e+00 4.653839999999999755e+00 1.024990000000000023e+01 1.413720000000000088e+00 1.471619999999999928e+00 7.394639999999999880e+00 4.681379999999999875e+00 1.500729999999999897e+00 1.060069999999999979e+01 4.667489999999999917e+00 4.359989999999999810e+00 7.546350000000000335e+00 1.170960000000000001e+00 4.573360000000000092e+00 4.735549999999999926e+00 7.750609999999999999e+00 1.632449999999999957e+00 1.603590000000000071e+00 1.105359999999999943e+01 1.771589999999999998e+00 4.464579999999999771e+00 1.092290000000000028e+01 4.573419999999999597e+00 1.490820000000000034e+00 7.650789999999999758e+00 4.839819999999999567e+00 1.066029999999999944e+01 7.257410000000000139e+00 1.714579999999999993e+00 7.110739999999999839e+00 1.071039999999999992e+01 1.482599999999999918e+00 1.069979999999999976e+01 1.101539999999999964e+01 4.646539999999999893e+00 7.484300000000000175e+00 7.334629999999999761e+00 4.632699999999999818e+00 4.578730000000000189e+00 1.196309999999999985e+00 7.640489999999999782e+00 1.663980000000000015e+00 4.354460000000000441e+00 7.581039999999999779e+00 4.447549999999999670e+00 4.536069999999999602e+00 1.049050000000000082e+01 1.180039999999999978e+00 1.142039999999999944e+00 1.026980000000000004e+01 1.056470000000000020e+01 1.323309999999999986e+00 7.275890000000000413e+00 7.682590000000000252e+00 4.651559999999999917e+00 7.451819999999999666e+00 1.029829999999999934e+01 4.142699999999999605e+00 1.019919999999999938e+01 7.298799999999999955e+00 1.149089999999999945e+00 1.039199999999999946e+01 4.691900000000000404e+00 7.510270000000000223e+00 7.547170000000000378e+00 1.466020000000000101e+00 1.095350000000000001e+01 7.578310000000000102e+00 4.408220000000000027e+00 1.070369999999999955e+01 1.029570000000000007e+01 1.577309999999999990e+00 6.924870000000000303e+00 1.046429999999999971e+01 1.067539999999999978e+01 7.539360000000000284e+00 7.632880000000000109e+00 7.486519999999999619e+00 1.094819999999999993e+01 7.679730000000000167e+00 1.070749999999999957e+01 1.071049999999999969e+01 1.070149999999999935e+01 7.537939999999999863e+00 7.744580000000000020e+00 1.045180000000000042e+01
1.546969999999999956e+00 1.710949999999999971e+00 1.447429999999999994e+00 4.631879999999999775e+00 4.616990000000000371e+00 1.657310000000000061e+00 1.441410000000000080e+00 4.716470000000000162e+00 4.454710000000000392e+00 4.574959999999999916e+00 1.671219999999999928e+00 4.849840000000000373e+00 7.284069999999999823e+00 1.323399999999999910e+00 1.398279999999999967e+00 1.026140000000000008e+01 4.903699999999999726e+00 1.507759999999999989e+00 7.764330000000000176e+00 4.962270000000000181e+00 4.664119999999999600e+00 1.093929999999999936e+01 1.682299999999999907e+00 4.341029999999999944e+00 1.746699999999999919e+00 7.683119999999999727e+00 1.776710000000000012e+00 4.740759999999999863e+00 1.075919999999999987e+01 1.761859999999999982e+00 1.584999999999999964e+00 1.099660000000000082e+01 4.538219999999999921e+00 4.960919999999999774e+00 7.358740000000000059e+00 4.755110000000000170e+00 7.808729999999999727e+00 7.739080000000000403e+00 1.708960000000000035e+00 1.092639999999999922e+01 1.094549999999999912e+01 1.747530000000000028e+00 7.887900000000000134e+00 1.098419999999999952e+01 4.415140000000000065e+00 1.116499999999999915e+01 8.032550000000000523e+00 5.047410000000000174e+00 1.527030000000000109e+00 1.845550000000000024e+00 7.750969999999999693e+00 4.907130000000000436e+00 4.230100000000000193e+00 7.772770000000000401e+00 1.187699999999999978e+00 4.286810000000000009e+00 1.103389999999999915e+01 4.482330000000000148e+00 1.287230000000000096e+00 1.084639999999999915e+01 7.518119999999999692e+00 1.480550000000000033e+00 7.915549999999999642e+00 1.129499999999999993e+01 4.586549999999999905e+00 7.610490000000000421e+00 7.224109999999999587e+00 4.282199999999999562e+00 1.097100000000000009e+01 1.048000000000000043e+01 1.532750000000000057e+00 1.087420000000000009e+01 1.740830000000000100e+00 7.666769999999999641e+00 7.901089999999999947e+00 4.695929999999999715e+00 1.047059999999999924e+01 7.704589999999999606e+00 1.410369999999999902e+00 1.064230000000000054e+01 1.107649999999999935e+01 4.852369999999999628e+00 7.112260000000000026e+00 1.044420000000000037e+01 8.095579999999999998e+00 7.745459999999999567e+00 7.563860000000000028e+00 1.103470000000000084e+01 1.084629999999999939e+01 8.114710000000000534e+00 7.657189999999999941e+00 1.053110000000000035e+01 1.096499999999999986e+01 1.114850000000000030e+01 7.674990000000000201e+00 1.100270000000000081e+01 4.222629999999999661e+00 1.544869999999999965e+00 1.377180000000000071e+00 1.328230000000000022e+00 4.617869999999999919e+00 1.412409999999999943e+00 4.564470000000000027e+00 4.487750000000000128e+00 4.552240000000000286e+00 1.436199999999999921e+00 1.460280000000000022e+00 4.681759999999999700e+00 1.044350000000000023e+01 1.368109999999999937e+00 1.348700000000000010e+00 7.164450000000000429e+00 4.449460000000000193e+00 1.490059999999999940e+00 1.041610000000000014e+01 4.655770000000000408e+00 4.188229999999999897e+00 7.261079999999999757e+00 1.474140000000000006e+00 4.479400000000000048e+00 4.568089999999999762e+00 7.667080000000000339e+00 1.770270000000000010e+00 1.311209999999999987e+00 1.076929999999999943e+01 1.562589999999999923e+00 4.386739999999999640e+00 1.071589999999999954e+01 4.692120000000000068e+00 1.731640000000000068e+00 7.586269999999999847e+00 4.546739999999999782e+00 1.073670000000000080e+01 7.787020000000000053e+00 1.784550000000000081e+00 7.536319999999999908e+00 1.090320000000000000e+01 1.360859999999999959e+00 1.060870000000000068e+01 1.104770000000000074e+01 4.664069999999999716e+00 7.657149999999999679e+00 7.616690000000000182e+00 4.455899999999999750e+00 4.268169999999999575e+00 1.403920000000000057e+00 7.628079999999999750e+00 1.634779999999999900e+00 4.589509999999999756e+00 7.942450000000000010e+00 4.323699999999999655e+00 4.245709999999999873e+00 1.055439999999999934e+01 1.266950000000000021e+00 1.289579999999999949e+00 1.064400000000000013e+01 1.073039999999999949e+01 1.425349999999999895e+00 7.669590000000000352e+00 7.702560000000000073e+00 4.526880000000000237e+00 7.592530000000000001e+00 1.056000000000000050e+01 4.248210000000000264e+00 1.032809999999999917e+01 7.519669999999999632e+00 1.198590000000000044e+00 1.078079999999999927e+01 4.623310000000000031e+00 7.592139999999999667e+00 7.656729999999999592e+00 1.830109999999999904e+00 1.083389999999999986e+01 8.112970000000000681e+00 4.334220000000000184e+00 1.078369999999999962e+01 1.041389999999999993e+01 1.472730000000000095e+00 7.301750000000000185e+00 1.079959999999999987e+01 1.075890000000000057e+01 7.682669999999999888e+00 7.916170000000000151e+00 7.523249999999999993e+00 1.052289999999999992e+01 7.601539999999999964e+00 1.079659999999999975e+01 1.041680000000000028e+01 1.081000000000000050e+01 7.929669999999999774e+00 7.572070000000000078e+00 1.100060000000000038e+01