-1.051070035098021071e+04
-1.052406398971026101e+04
-1.052431392561836765e+04
-1.052690680728786720e+04
-1.052644564863060259e+04
-1.052696575334896806e+04
-1.052380662613125969e+04
-1.052667414481822016e+04
-1.052499840299428979e+04
-1.052731820774049811e+04
-1.052627313005790165e+04
-1.052667380910630345e+04
-1.052666949535648200e+04
-1.052533606639221034e+04
-1.052488496555003439e+04
-1.052475655250049567e+04
-1.052337455424205473e+04
-1.052715927399712564e+04
-1.052484042991238493e+04
-1.052675854029897346e+04
-1.052613644381953236e+04
-1.052384510450150810e+04
-1.052409311859944864e+04
-1.052559497862131866e+04
-1.052725141412296944e+04
-1.052454416617814422e+04
-1.052572228463886495e+04
-1.052357274833269548e+04
-1.052641644155940958e+04
-1.052398512587606638e+04
-1.052450399889316941e+04
-1.052394620475897318e+04
-1.052725232848821724e+04
-1.052593202358929193e+04
-1.052446862554689505e+04
-1.052457128890609602e+04
-1.052535296492523230e+04
-1.052455806653635955e+04
-1.052588211739088911e+04
-1.052414772012534559e+04
-1.052469798653192811e+04
-1.052550155524742695e+04
-1.052696475433767773e+04
-1.052469414951970066e+04
-1.052503447547499309e+04
-1.052561468231556319e+04
-1.052446471173683494e+04
-1.052673891247631764e+04
-1.052478363963348966e+04
-1.052677926082504746e+04
-1.052492861522635030e+04
-1.052422063585930664e+04
-1.052418090488709458e+04
-1.052485213332064268e+04
-1.052661236683305287e+04
-1.052657946693570557e+04
-1.052495098137414789e+04
-1.052426366570634491e+04
-1.052444627610912539e+04
-1.052428165148151311e+04
-1.052555255914186091e+04
-1.052601018291643595e+04
-1.052628452551740520e+04
-1.052409135628049989e+04
-1.052464565723004671e+04
-1.052546100478425251e+04
-1.052473722154724601e+04
-1.052716505651777879e+04
-1.052535683094969863e+04
-1.052590576941764812e+04
-1.052638819733867604e+04
-1.052461783264363476e+04
-1.052611667365533322e+04
-1.052593534162145988e+04
-1.052717848343158767e+04
-1.050988814657556759e+04
-1.052435639567543876e+04
-1.052704297816250437e+04
-1.052630171683655499e+04
-1.052604817778955658e+04
-1.052517426317124227e+04
-1.052414510572845211e+04
-1.052467274730524150e+04
-1.052370379314971251e+04
-1.052683971059800933e+04
-1.052691000341086146e+04
-1.052405497716749051e+04
-1.052601374833445880e+04
-1.052517192181963219e+04
-1.052461916420281341e+04
-1.052409136554253746e+04
-1.052473120635908526e+04
-1.052377951703548024e+04
