1.916404135673513531e+00 3.452886127691362717e+00 6.552807099910909372e+00 -9.065452629325972123e-02 6.049924004544927625e-01 8.387020780891533134e-01 6.773062194713027617e-01 5.529188197282126627e-01 2.714005072878955538e-01 7.185533990144619132e-01 2.127851145272550148e+00 1.561280796209793209e+00 1.751189160422859992e+00 8.702937368279303199e-01 4.106656983063195376e+00 2.027752442854601433e+00 4.052243698461964749e-01 2.595415510760054723e+00 -2.359897319163152818e-01 1.504434733799246970e-01 4.192667068609520209e-01 5.462822882534641711e-02 2.464287192753949363e+00 3.666845619297653402e-01 2.460203766716371199e+00 -4.208597623784455233e-01 3.036964426040641651e+00 -7.468956975805335352e-01 -1.052191572037926237e+00 8.507227052676991974e+00 3.212426790042945512e+00 5.190008268509137546e-01 1.328082768103830413e-01 7.431300598934434953e-01 1.712041029498941880e+00 1.124010710806889746e+00 -2.830429766137737002e-01 5.007789045404231754e-02 4.831007191260582978e+00 8.857239553280684685e-01 1.142636810534020109e+00 3.316195485110458474e+00 -1.860439961646602192e-01 -2.374614313646904729e-01 -1.442028917917060650e-02 5.135716854197658332e-01 -2.537313721566513136e-01 6.207476063939645350e-01 2.880758596260125870e+00 2.681971698617413136e+00 -1.656520627877323126e-01 5.558020548110358394e-01 4.663091529251415235e-01 3.952320345279479730e-01 1.526166726142794250e+00 1.544847333256901545e-01 -6.523145825424124522e-02 -1.207040373570971298e-01 4.052689527749785192e+00 -8.969360219850821547e-01 1.974586657506256782e-01 3.003493805113058635e+00 4.619722161160580987e-01 -8.616681999491581090e-01 2.968796253757864378e-01 -5.352939075713082362e-01 -6.407739289016419759e-01 1.496798557416167408e-01 -1.005532220344470540e+00 1.695593168368358494e+00 1.471268017265091155e+00 1.813278216395821874e+00 1.824966451357935560e+00 2.044582369914654807e-01 4.749912540734179678e-01 3.347663730897589285e-01 -8.014128547493988217e-03 -8.989090865495180660e-02 1.854942943092049212e+00 1.032835279013558649e+00 1.500601218988751429e+00 7.457510424540194638e-01 -2.547891239963815391e-01 3.660777815841738669e-01 9.176498574775525663e-01 2.845085054145666814e-01 1.009622845470894204e+00 8.850210157243197928e-01 1.975090593725477017e-01 6.055734697684912460e-01 7.001525279240849997e-01 1.621001351952421343e+00 1.447240544020932829e+00 -7.945274404888312547e-02 -3.037192740001186733e-02 -6.578568525125690902e-01 -1.903718312685597658e+00 5.433352898122906227e-01 -4.160358586309934603e-01 5.265794105232247668e-01 8.117224641975030464e-01 5.217791609248381146e-01 -3.525501794219073615e-01 -1.504917072751928764e+00 -1.010110326629894972e+00 -1.706775410228724421e-01 1.354945653912049131e-01 1.276449874459052031e-02 -4.353890663315699072e+00 -5.184968906316937964e-01 -8.695985105336595175e-03 -2.398292631082032056e+00 -1.447639065010622172e-01 7.296785623846917535e-01 2.509165284178652144e-01 3.491450103977491448e-01 4.382352775288992919e-01 -6.276926702478273778e-01 4.218758623469953672e-01 -6.173347240603285213e-01 -2.938338965732964492e-01 -1.078405511408741191e+00 -5.058948856067702060e-01 1.169533120683309280e-01 -5.618075861484325806e+00 3.244269388450068403e-01 1.979446042477307210e-01 -2.230949810856753146e+00 2.567863569305148252e-01 -2.454673323820747433e-01 -1.346263038543140667e+00 -7.169541728493861177e-01 -2.504257048247575224e+00 -1.169083177630434234e+00 3.513283912006146537e-01 -1.016377133470337979e+00 -1.147210288833757641e+00 3.835047187978133931e-01 -3.393869539993747519e+00 -2.519145278201735394e+00 -2.506290790846570360e-01 -1.192912675931327549e+00 -5.569472241581817640e-01 -9.750091120786926746e-01 -3.524493921780633143e-01 -1.101491446675968572e-01 -3.265373003181486489e-01 1.321922404934181561e-01 3.246789069546168055e-02 -2.596299970246849220e-01 5.401640911756274699e-01 4.533765040339336472e-01 1.581794085655839274e-02 6.682322822015510644e-01 5.195063057320294941e-01 -8.510937668756474395e+00 -2.974772525941308032e+00 1.787939994761060247e-01 -1.892886769296157956e+00 6.782261601816952368e-02 -2.204612972754924627e-01 -5.375662485434850972e-03 -1.135191924225992022e+00 2.517613929160065211e-01 -2.582402643450277147e+00 -1.422293644287014436e+00 4.136555313261266464e-01 -4.132597871278493429e+00 -8.157554966131589369e-01 -2.355706421013516738e-01 -9.598817695307181319e-01 1.921441955203818386e-01 -3.017605561913115242e+00 -1.436892368025439293e+00 3.734249659721490811e-01 -3.173217466863836211e+00 -8.530539245022236372e+00 -4.808528550559577897e-02 -9.611421242994002689e-01 -3.123143690174848608e+00 -1.805902235652462773e+00 -2.770620764446429796e-01 -6.814503235434397899e-02 -4.796043273618086356e-01 -2.634415546141998465e+00 -1.563633355600539732e+00 -1.436068072352572278e+00 -1.311334087903610612e+00 -3.182754202702259061e+00 2.212948489197329172e-02 -1.746537520587080117e+00 -4.884794155132210491e+00
-1.997937416398890831e-01 9.070805666103605169e-01 1.117748531952132973e+00 6.793394478496660449e-01 6.105686089863517907e-01 5.631610662735437867e-01 -2.730969211523923135e-01 3.551876170427027690e-02 7.845875556750321611e-02 5.534196706236416130e-02 5.200822328397094463e-01 1.377866524356450517e+00 -1.971002539702212397e-01 4.150706665049975763e-01 -1.137718290190306236e+00 2.028554112819666855e-01 -1.442491716485732045e-01 5.729821661213839734e-01 -1.132329257968442970e-01 5.049348356870928534e-01 -5.700156272961999226e-01 1.442558565167873508e-01 6.861338450583946980e-01 5.863832700082135529e-01 -4.284460593602343881e-01 -3.144628856615104828e-01 6.732191938893019589e-01 3.292966082286941792e-02 3.027731080375014455e-03 -2.915287483248070632e+00 2.260493328818843073e-01 1.711922758753614549e-01 5.698454202670552027e-01 -1.020820513950215919e-01 -3.653136497252340575e-01 3.211919768499933991e-01 2.366865008724817199e-01 -4.776389761068505213e-01 -4.114376977409267000e-01 7.984679131907527205e-01 -4.295850580597979779e-02 -5.312968705998825092e-01 5.766691280517998175e-01 -5.608640427110377358e-01 -2.794562877065699391e-01 -5.967206473704382841e-01 -2.269610460621670489e-01 2.747984772232077155e-01 1.080210940047191537e+00 -4.797488233593604767e-01 -5.792422880936131113e-01 1.832219533370280790e-02 1.226601326406818071e+00 2.010278711563462939e-01 -3.207281498400582631e-01 -2.703463549925883350e-02 -9.058973449364569885e-02 3.713259173529081525e-01 9.954370408998505226e-01 6.174529948056556306e-01 -2.075348190318669350e-01 -5.934800289484745139e-01 3.892048545019500816e-01 -4.608414449466042284e-01 1.853580258417627802e-01 -4.712143035324271034e-01 -1.632563088639097659e-01 1.375180235775628340e-02 3.568706611707712639e-01 1.325914813919920610e+00 -1.244820163393517559e-01 1.248585801080607682e+00 2.918706022008657475e-01 5.584837154061710329e-01 -1.159464680711545792e-02 -2.297810320072717905e-01 6.596936486095629319e-03 4.124527692682127267e-01 6.522528760665896597e-02 -3.407452163763622366e-01 9.498925195362609708e-01 2.476563696118907199e-01 -1.873593725409508914e-01 -1.372506288489971221e-02 6.527979499363582849e-02 3.497080819896327686e-01 1.011117170627071210e-01 9.935822470807414986e-02 -3.578960171106944643e-01 8.125261910450958247e-01 4.914051766422988798e-01 4.677134894707434820e-01 1.263443692017488518e+00 -3.761102261117072465e-01 8.462271828157511000e-02 -5.247775814291972818e-01 9.826992816281164833e-01 -1.842817620592857031e-01 -1.332395022322584444e+00 -2.863093060673304602e-01 9.603239992741153808e-01 -9.295257829702939512e-02 5.741957268125668090e-01 -4.431296295029158588e-02 -3.678369303657572642e-01 -9.581627299584197233e-02 1.345818237696584374e-01 2.470658386382659444e+00 -8.386629973211320865e-02 7.867575667414693219e-02 -3.822716177226198608e-01 -4.738764237435516558e-01 2.196400869264165667e-01 -1.398680118651501325e-01 3.849820746731389964e-01 1.535272545091721230e-01 1.031731761537593162e+00 -1.339375053179413799e-01 1.299132146530271870e-01 1.352134409717685948e+00 6.661841414248640403e-01 -5.557861139714482812e-01 6.045265165620300474e-01 2.039507012278224951e-01 -1.589615895687018776e+00 -4.131803914622906304e-01 6.045167463700247268e-01 -2.548657428705282668e-01 3.644931078629796595e+00 6.519638840714858663e-01 -4.907042939210774501e-01 -3.244891595414616248e-01 -1.532809428265125284e-01 -5.449144613727240766e-02 -2.933551571650374057e-01 -1.155203848555977464e+00 -3.319227329955887762e-01 -3.245503517966526197e-02 -1.199086923058036547e+00 -9.246571420278703046e-01 -6.055487871781620735e-01 -5.454657058900749256e-01 7.005381933979777653e-02 5.096954902968264811e-01 2.454200240839438940e-01 -6.376289555172035550e-01 -1.169676074018965561e+00 -5.129556491028009618e-02 -6.824890492197911718e-02 1.745264824523233387e-03 1.203431058955965582e+00 9.939833391735902746e-02 -3.188846688748502856e-01 -1.433143185398568498e-01 7.220758103426834218e-01 -2.542063577542978070e+00 -1.453179792318883168e+00 1.637021381517299312e-01 -1.166986700114352571e+00 3.136319051204293218e-01 4.165238540106259713e-01 4.146006688474801472e-01 -2.092836834008131863e-01 -1.843007882226644356e-01 -1.115933333121677196e+00 -9.293082676430183264e-01 -8.814615805106044977e-02 -4.171409187688545489e-02 -2.824408242538689606e-01 2.353793520263008227e-02 -9.838017706628181536e-01 2.753003565599003166e-01 -4.241985969410942414e-01 -1.955464334869384535e+00 -1.076011814367446029e-01 -1.201024506398874259e+00 -2.928681902266686565e-01 -4.760356361767199007e-01 1.367940009279079716e-01 -8.284248645408559542e-01 -8.179208796939095860e-01 3.463913589141540128e-01 4.600793699701918871e-01 -1.122224822552449625e-01 -4.605601662609782876e-01 -1.863121108021105421e+00 -5.950468592137432289e-01 2.124919059229700424e-01 5.434885275605839672e-01 -1.418739865500249220e-01 1.283139884879513914e-01 2.758557148423060323e-01
-4.249658141238251141e-01 -1.038259792459020003e+00 -3.549994122914429950e-01 1.131758473067081688e-01 -5.725435359224097243e-02 -1.233286194620961257e-01 -1.364155345428610666e-01 1.896898204445275349e-01 4.313730031967654144e-01 -3.862043771150635019e-01 -1.679989657515284507e-01 5.673529928644435172e-01 1.138372893054660384e+00 1.244557910871270240e-01 -3.697760563684906465e-01 -2.804903853972346983e-01 -7.022505481020623053e-02 5.900224094198667224e-01 3.081384861102991479e-01 9.476160647990292119e-02 4.728104443737116830e-02 -4.639504228868127078e-02 1.129829631476985341e+00 -9.538818431982086787e-01 -4.979764020968015514e-01 6.810636296282831514e-01 2.150821380897609547e+00 -3.255366269685546210e-01 4.565291907278500316e-01 -1.218048808857769671e+00 -1.011964092007739957e+00 -4.010293579315056811e-01 -3.454693613212340697e-01 6.915933255068222874e-01 -8.286387803237085237e-01 5.957251162271627321e-01 5.946138854417194752e-02 2.811938392216153382e-01 2.512211012981141689e+00 2.090658595411584830e+00 2.061896178589285589e-01 8.419838341616656674e-01 5.023225948772583882e-01 1.621749028751141575e-01 -7.459860412827782339e-01 -4.985734122503877597e-01 -1.988547747661179033e-01 -4.085539484374716701e-01 1.186390301436851313e+00 -1.904740069081097276e-01 1.765627961544777580e-01 2.891863705025713438e-01 1.067773999845093996e-01 8.871061803865005757e-01 4.771406963145808922e-01 4.978221359072444036e-02 -4.423063622713125365e-01 -2.913183292422511506e-01 -8.613411556272969616e-01 -9.975926537885955181e-01 -1.138657257064077388e+00 -3.541134101427531045e-01 5.349282967020577845e-02 -1.196591410331633359e-03 4.374315506813066246e-01 -2.636743422942415260e-01 -1.812062084601480036e-02 -3.426730295251948499e-01 -1.954444635356411553e-01 2.318862512740950121e-01 -8.465048619569540134e-02 2.346844342644090364e+00 8.006307251683439929e-01 -8.708835478926706397e-01 -3.745706495399269143e-01 -1.810293679848522963e+00 -9.453843472567691197e-02 7.348927595917233990e-01 3.098935211268276646e-01 1.658089000804487678e-01 -1.261619751436291459e-01 -5.274145048293608085e-01 6.719989483299049216e-01 -2.771736623217559425e-01 -3.225402633467228664e-01 6.824222005376497091e-02 -1.114554193387036429e+00 4.172823294426152296e-01 -5.010874369195374850e-02 -3.454678186593385103e-01 -3.066842701634070467e-01 7.828309779966080573e-01 2.506182804513880091e-01 8.016277989735151044e-01 2.759688433813146102e-01 4.998306816952785558e-01 -6.177286170643311314e-01 -2.998518206279208731e-01 6.449452866672673590e-01 1.322719446913560026e-01 -2.152373298764554896e-02 2.023612452547519230e-02 6.762721217806380025e-01 1.700080257601944145e-01 -1.168364811407729853e+00 -6.129566496006965126e-01 5.591809985829693241e-01 6.192404257219912278e-01 6.263202153814005912e-01 5.358451520886591268e-01 8.096727807589204629e-01 2.256374421557666987e-01 -1.955179970859967087e-01 -1.200370931975783817e-01 1.922871488560381203e-01 -3.838950122573929202e-01 5.131181428224677044e-01 1.142932487397337882e+00 -4.650457128326684342e-01 6.144458325505549601e-01 5.262374538030397675e-01 2.962306789383826744e-01 -9.799482012476807835e-01 2.241626573836003611e-01 -9.248571738536627285e-01 -4.578260551613938523e-02 6.439703243492661544e-01 7.084921581315445360e-01 3.436037688688562963e-01 -7.907818574063836259e-01 -9.204549310243334559e-02 4.901977865986982263e-01 -2.022974818964016208e-01 -1.735607761056955911e-01 2.448466680794231243e-01 -2.404581035189012894e+00 -2.077821591557902359e-01 -2.368500230334122936e-01 3.579695506610500871e-02 -1.783349547180470784e+00 1.623086002393969995e-01 -3.666542229124857277e-01 6.624107904282960924e-01 4.131135427801492233e-01 -1.809902357947679868e-02 9.021795297681296788e-02 8.505157828854398305e-02 -1.141530721954895355e+00 -3.809130468132532199e-01 -3.200200680299909034e-02 5.817254595248514404e-01 6.148417824370849827e-01 2.605890185030985129e-01 -4.480764319813818064e-01 3.643217181263816440e-01 -2.101989961255189276e-01 3.903675073505791238e-01 -1.644991801311085355e-02 -1.444022551306770819e+00 -5.762922043286484997e-02 6.817213178164283072e-01 2.133182584783644975e-01 -8.573816567619968465e-01 -5.998126560297955406e-02 -3.777490472654360110e-01 3.185499112435112301e-01 -3.170617567349166555e-01 -6.370237178335077521e-01 3.583773276221127735e-01 -4.362529569930899132e-01 2.859606644789312591e-01 -8.426739182496180147e-01 1.329948874776840206e+00 -5.169871388565611126e-02 7.954941752767226426e-02 -3.877388114805252473e-01 2.871207462244010356e-01 5.638429228313863832e-03 4.595363529829507021e-01 -2.237692786002296153e+00 -7.591408334869483854e-01 -2.079791056577915132e-01 -4.003927527892665039e-01 1.649531855269752434e+00 -3.001577819038758754e-01 8.350259147920063851e-01 4.349087842614153265e-01 7.204333896445316854e-02 -1.360000442723204861e+00 -5.178386882229166766e-01 -1.636692280312910808e-01 -1.569710929248459674e+00
-7.967848690626841771e-03 -6.501085760317451556e-02 4.222322172448723654e-01 4.845696417830215319e-01 3.660597838620588962e-01 -6.010056478957039733e-02 -2.211786350569331927e-01 -2.272356398795787880e-01 -1.852227858155843232e-01 -1.187448567497213087e-01 -1.151523057273143857e+00 -1.466001883774241676e-01 4.541030977867478724e-02 -7.772275157712605909e-01 -8.312839312539817282e-02 6.195844393247036674e-02 -1.583542435804153603e-01 2.891812282962527014e-01 -1.636373463521159088e-01 1.964873029770475010e-01 -9.383333539527435319e-01 2.262725046361103443e-01 9.784487338851850791e-02 -7.284922553869972450e-01 5.971315096552921586e-01 -7.352120906041068049e-02 -1.202962603960343740e-01 -1.716566171059284718e-01 -7.829163386214963438e-01 -9.797923923962279513e-01 -8.491530982110183368e-02 2.407791828814329071e-01 -3.623666512840606480e-01 2.313787155104519988e-02 -1.577729685781640301e+00 -6.756293459908165044e-02 -6.932228906891777509e-01 -9.771518694516413417e-01 3.215570734986120116e-01 1.737453813125323099e-01 2.801422580294673711e-02 -1.246707353112433275e-01 7.734495367890059647e-02 1.423964347119918150e-01 3.179667850469852231e-01 -2.155895710092776141e-01 -4.619357064511963040e-01 -4.692515233806282549e-01 2.409709871771156808e-01 -6.104426249315468844e-01 -7.197237651725688079e-02 -2.556026210359795270e-01 1.668126587538339700e-01 -1.347217432035867413e+00 8.082401620785663043e-01 8.015326681566214972e-01 -1.031721991345587869e-01 1.172762426251372225e-01 3.568655189644526771e-01 4.920448671083291758e-01 -5.672455207523853238e-01 -9.196836000765477859e-02 -7.697630890792218628e-01 1.961057512682094772e-01 3.697297765116235035e-02 4.995190639923731135e-01 -2.943218919529288491e-01 1.857971702613687992e-01 -2.094087418584808180e+00 -2.968600849917759077e-01 1.996672433644522127e-01 5.558005121491402800e-01 -1.794953964179591965e-01 2.082660407703678107e-01 5.637673323985034068e-01 -8.417123256680451859e-02 -3.641258000656440452e-01 4.464525232259768939e-01 1.551290517774072120e-01 -2.914977922427692825e-01 -1.061121013310125871e+00 -2.383556610434900969e-01 1.051591476560548855e-01 4.691209113401365038e-01 3.112073548412226942e-01 2.959843672557230798e-01 -2.232956813982891475e-01 4.438238273559230555e-03 4.195988933891318245e-02 1.236592633283802728e-01 -3.574136781580124489e-01 -9.273768549497628522e-01 -1.253388107561521636e+00 2.482358962639937272e-01 -6.731508025452649646e-02 -7.446896910698663774e-01 4.193242995717200161e-01 1.233616838487245237e+00 -1.911589487897435158e-01 1.479798423326969814e-01 4.195562130766876119e-01 -4.689177941905529196e-02 3.855276627635394471e-01 8.763476563267846853e-01 -1.962127091596357342e-01 2.162729702290158151e-01 -4.188121358223903523e-02 2.859349534473384358e-01 -1.704831656240304583e-01 -5.805895461490788723e-01 -3.512255470742432495e-01 -3.412352686385221601e-01 9.840701938326477105e-01 1.991542054400483375e+00 -6.590647567768014303e-01 -1.410872289832834636e-01 1.740816816057668970e-01 1.407504144694170234e-01 8.710676388788755053e-01 6.685418430219290942e-01 -5.484199034200943901e-01 -4.088912771719699357e-01 4.065042649988890311e-01 -5.010046473978083670e-01 -9.774177215183115219e-01 9.075479931647185972e-02 4.610142230789082696e-01 1.281636817972595210e+00 1.323263492342064973e+00 4.673756465156132522e-01 -1.197861535292320811e-01 -1.023895553328721952e+00 -1.736163119339361738e-01 4.932738544184677165e-01 -1.680215914593301621e-02 5.880817407552377807e-01 5.238494131886950456e-01 8.696602170094822615e-01 -8.487766887084988721e-01 -1.831216803138159266e-01 -5.343775664053388441e-01 5.132029892267241378e-01 -1.562335976946364058e-01 -9.530349218175401260e-01 -2.421012441259377257e-01 9.159822399684397487e-01 -7.168014493217245153e-01 1.978412459007274082e-02 4.750545032111363475e-01 4.213364449041771542e-01 2.828773975703157140e-01 -2.522159639545682452e-01 1.083394479979019387e+00 7.947608966556943821e-01 -5.922006480164136999e-01 -1.398361301859749883e-01 5.308968069482975644e-02 1.544029722452248676e-01 9.309234346476819022e-01 -2.575366048323944335e-01 -5.451772281156029853e-01 1.353872989673994942e+00 -3.777459619416448922e-01 2.321351340599139002e-01 -3.416096212585141845e-01 1.874442189452072971e-01 9.845365919457421677e-01 3.025170261628365997e-01 -4.103305807205381295e-01 -1.451027778974560978e-01 -5.566582321630779706e-01 -2.685620094000439398e-02 -2.881980384481418467e-01 1.336930962516196697e+00 -1.240166466675210188e-01 -4.161813830698090633e-01 -3.969114791115935237e-01 -6.766361899879929087e-01 8.030532185650230970e-01 1.326833211968417581e-01 -2.905963634751236868e-01 -1.709629334735531525e-01 5.289083157649059341e-01 2.363687125219939844e-01 3.978216496299806504e-02 3.797339389044047664e-01 1.866168379485491080e-01 5.097417701536936102e-02 -7.521299493922076196e-02 7.275692293528136512e-01 -1.861648380131467051e-01 6.938533251838345794e-01
-2.864949397154308852e-01 1.561456659665888258e-01 4.100343896365885032e-01 6.369229305896636495e-01 4.251524762131892593e-02 -1.833217121396083782e-01 -9.359586830748271857e-02 -1.302819108460687714e-01 5.211070745590007380e-01 2.135213756279480957e-01 6.303481055907378394e-01 -2.822284511329118950e-01 9.287801630541010767e-02 -4.939947917443315295e-01 1.245380663882241917e-01 -1.911167826979311979e-01 -2.507792315091593172e-01 -6.039367054972898802e-02 1.949353851101025548e-01 3.119097802243396833e-01 1.824459944035556058e-01 2.824433953570282818e-01 -8.496976578601550534e-01 -2.825467537040315391e-01 -5.169249181601064391e-01 -6.673874177034098132e-01 -7.178082933189008363e-01 -6.249811848560445915e-01 -2.656129540763430552e-01 -5.056640005430661916e-02 6.172051404611004211e-01 -9.395325164662344034e-03 5.022650021664903930e-01 -1.051893324071448976e+00 -2.197290470957278252e-01 -8.014642768125845862e-02 -7.970100976994376474e-01 -3.859621791974587879e-01 -8.712481303206571770e-01 -1.867798973109110250e+00 -1.451269462671534172e-01 -3.613793476708949681e-01 1.392560893132401001e-02 -7.007078862064905489e-02 2.186481553275640977e-01 7.517751371562261808e-02 -2.557861978015525950e-01 -4.595934314730868997e-01 -2.031464601595978081e-01 4.787219247575417724e-01 -1.047263795722838786e+00 -2.952300055887886465e-01 1.392416911355481013e-01 -5.761374239184595680e-01 2.641140009344794537e-02 4.223998531708578197e-01 -1.956300971837415803e-01 3.644718705508839252e-01 8.538268495339682573e-01 3.277040669318325716e-01 2.733720291904359057e-01 6.593799740241299556e-01 -2.151257439993425058e-01 -1.168412119705860772e-02 -4.344315875150518980e-01 3.791585260173565564e-01 -1.360432388053965103e-01 2.015642032753733187e-02 -5.342310135252594794e-01 -1.100701603785436022e+00 5.757347891637152326e-01 -1.593965688011898529e-01 -1.046046121266601236e+00 -1.622078129955530079e-01 -8.328065385449108238e-01 2.889930235449930107e-01 8.930829667905762492e-02 -1.345489136492195592e-01 -3.571303425898591510e-01 -5.909562340873194541e-01 -2.965135002859041191e-01 -2.201332245123675813e-01 -4.404932203233841159e-01 3.602177232635295767e-01 6.590894393671307139e-01 1.837850249289116888e-01 3.170951810759873313e-01 -3.053185001651944133e-02 2.886988893435707415e-01 4.499955033794728054e-01 3.395496534072943717e-01 -3.118958962672794821e-01 1.111117656904334894e-01 -2.292498420945633386e-01 1.072201439485384253e-02 -7.495686164249270034e-01 2.262545069139953180e-01 6.482532679920045560e-01 -1.755518383922465286e-01 2.383931991496157088e-01 8.737791242706582917e-02 -2.057458454536358616e-01 -3.443298484010385851e-01 5.006966292393260493e-02 -1.669406996911663721e-01 5.501883081730510883e-01 -2.333044717767571163e-01 -6.290101035066455459e-01 5.193772363534332470e-01 -2.337693272279560142e-01 1.816067863323647391e-01 -9.303331093623097570e-02 -1.917734424448128139e-01 3.079446249320890172e-01 -4.740682280392344294e-01 3.469698571249933416e-01 2.564515992991757143e-01 -6.065998541496782082e-01 7.529455033143330756e-01 -4.408665445021124896e-01 -4.100642144332362071e-01 -2.620509477594684666e-01 7.671811872866669824e-02 7.942950127632317781e-01 -2.028646672533400974e-01 -1.494381720446439077e-01 1.591651695168541103e-01 -8.543698665212093868e-01 -3.246840491609354756e-02 2.688186054953407012e-01 4.664145681546721933e-01 -1.653281037896623118e-01 6.019158184140912526e-01 9.016853637409150135e-01 2.958285584042703587e-01 2.056593535433574704e+00 5.389793268398285209e-01 4.738229447978384856e-01 -8.329695464852095999e-01 -4.586128127281352551e-01 1.721533542363025138e-01 1.115069956680789121e+00 2.961900555084659437e-01 4.284177772254822020e-02 -5.822468792455545716e-02 4.800578699591065979e-01 -2.295321492214529302e-01 -4.866635481959438042e-02 5.376942894808175444e-01 -4.147446506244001352e-01 1.313000676971459724e-01 -1.069326946153302815e-01 5.041377937077142768e-01 1.150136718449656925e+00 4.536495551894498268e-01 1.404426534212505073e+00 -2.291721947791529046e-01 3.178289739176475281e-01 7.981465252958420686e-01 -1.881451016664286158e-01 -4.682338807501828515e-01 9.634900557044599745e-02 6.569446251116545232e-01 4.307487393496908235e-01 5.092229215361496752e-01 1.934909393552157811e-02 8.904933516885437106e-01 7.811582182811767083e-01 1.724572586297301036e-01 1.150928618222716998e-01 -1.566562870540229857e-01 1.291064024816432898e-01 -1.133385467146277747e+00 -1.394376091962856723e-01 3.170005644797255773e-01 -6.065844275307225031e-01 7.947254154320962938e-01 -6.257653713196269230e-02 6.832356975772477803e-01 1.400294257214900862e+00 -2.804657028069055813e-01 3.224009095554895565e-01 1.445407347468362358e-01 5.800408727348872707e-04 -1.250301755329114917e+00 -8.967868980018436353e-01 -8.506345678513990149e-01 -1.131128038572424721e+00 -4.811007094005130269e-01 3.532875718079904748e-01 -3.654226644991878659e-01 2.310814959852385553e-01
-7.382207955211030903e-01 -1.040895687417919963e-01 1.409447898682590072e-01 -1.605994851252933175e+00 1.793539857441984742e-01 1.825735211202561825e-01 4.692098715094477623e-01 1.404526807235717267e-01 2.812303488864772438e-01 -1.634208594661040459e-01 -7.903334570154041394e-01 -3.252975143747410813e-01 4.660283884601474913e-01 7.940975520405986199e-01 7.497804753252522714e-01 5.191257824644550656e-01 1.547618982462611870e-01 -2.764264997436675086e-01 -4.628458769695835140e-01 -1.220060439969594901e+00 3.079209707830235510e-01 -2.193577797995269751e-01 4.877588381417995861e-02 5.273615401042796025e-01 -1.451182045164118271e-02 2.138751594226658281e-01 -2.890593580065025647e-01 -3.789374111456579874e-01 -1.473000426573818078e-01 1.314697605056588114e-01 2.006303786079207119e-01 -2.438012575348575406e-01 3.604496367684971725e-01 -7.220521561936180666e-01 5.249071650284251600e-01 -4.030990959747308144e-01 2.555491420902664679e-01 3.318677113879801160e-02 -9.242308531240607250e-01 -5.579406984189299035e-01 -2.892012829008951957e-01 1.598094879685711331e-02 -5.931781814375742812e-01 7.161962116380285459e-02 6.258841562855858021e-01 2.685568671937253737e-02 -1.165049116773514831e-01 -4.625944230806053326e-01 -5.020433730741599154e-01 -6.365274949237654800e-01 -2.287150526374318732e-02 -1.130848302548694423e-01 2.031176638042138660e-01 -2.373441890606270699e-01 -3.125145036874036886e-01 1.818135030263713092e-01 -8.353231343172198287e-01 -1.709500779577567409e-01 -2.542923868660075248e-01 -1.939151713764979412e-01 6.065247779374270953e-01 7.486641023334904277e-02 -4.764727237137985072e-01 -9.020597163609069824e-01 -1.451356880178949482e-01 1.832692616351589698e-01 1.707104511433112926e-01 1.853523694148123402e-01 -2.143112185184807006e-01 5.250686303068283767e-01 -1.922943479448841475e-01 -7.721454732666160892e-01 1.998616187632942520e-01 5.448918356649222750e-01 1.356570591108717805e-01 3.183596496097240713e-01 2.691430787140425621e-03 -2.838333337249381305e-01 2.270664612916977743e-01 4.146366642917101442e-02 -7.472011446358567399e-01 2.460165200168982214e-01 4.151704253075778062e-01 5.686668265788386023e-01 -6.911130434366677955e-01 -1.117154607122337884e-01 4.392020123167907908e-01 4.150069031466473435e-01 7.661116083724041348e-02 -6.053323002921503493e-01 -1.610945253275822275e-01 -4.783239179884842263e-01 -9.364667330591019967e-01 -9.542664802308379324e-01 -2.567683592083997990e-01 1.604023843571024677e-01 8.639785932480924524e-01 -2.974133863916541554e-01 2.407082204342366472e-01 -3.718468228529794861e-01 -1.524977848041940698e-01 8.662961856358726287e-01 -6.112468659997715159e-01 2.720479110634037023e-01 -1.069918299879938361e-01 -2.899592441122526565e-01 4.076674320681499264e-01 -5.686647696963111898e-01 -4.796701476026862809e-02 5.530010950293099414e-01 6.768979282896081529e-01 1.984289486608769693e+00 -6.175789788604607068e-04 -1.060040121541962060e-01 9.200471540632707557e-01 -9.302405496485754988e-02 6.945300395353586342e-01 8.597049055767275183e-01 -1.013935099689648456e-01 -8.556117093471445056e-02 -4.006704319304693618e-02 -1.099146600594699992e-02 -4.389130203216870529e-01 6.438052595264399658e-01 -9.270420973184238800e-02 6.954705490710254567e-01 1.802862677497555077e-01 1.729457682299944121e-01 -6.618646881172637331e-01 -7.843314738003672737e-01 1.702893044458202859e-02 6.423273894304825093e-01 -3.956742642713451663e-01 -4.148917177251112975e-01 -4.021745272786516057e-01 -2.503328880007072918e-02 -1.101545954062945309e+00 8.926016562791579956e-01 3.321392198816006669e-01 -5.528067196304679021e-01 -5.731708850932755450e-02 4.990634645125476831e-01 8.007464248105119475e-01 9.146771480047863889e-01 9.870876405003854437e-01 1.133295992756334636e-01 1.156446205602544436e-01 2.855883687414667027e-01 3.567909569728333619e-01 -6.727435398048341453e-01 5.532700324197712405e-01 5.462797171503047666e-01 3.095767612176036354e-01 8.060716936740247585e-02 9.193236456342476770e-02 4.574763851317308894e-01 -5.065880550185136721e-01 -4.452379340935302965e-02 -2.609320036645472740e-01 -1.306974011166093519e-01 -3.511833809824309593e-01 5.145034532046910414e-02 1.894903028393669642e-01 5.738666256081782491e-01 5.961190092311653421e-01 -3.330097954113348524e-01 6.936959736704862989e-01 -4.597209581897874209e-01 -1.590715813618561181e-01 -2.152969794697508765e-01 3.306747195220714475e-01 -1.770067228259600389e+00 -6.169192337897878575e-01 -9.395464004232946253e-01 8.113640524170987467e-01 -4.329804568919508601e-01 1.417412662049426286e+00 9.052478842784216218e-01 4.058203515585189214e-01 -8.377733956280192240e-02 7.214464042892902995e-01 -2.096333534304760104e-01 -4.254162713973320131e-01 5.213986376572639081e-01 4.634521430945430787e-01 -1.666398806215299289e-01 -3.375822452698088449e-01 6.059581068011204996e-01 4.663204657790423480e-01 -9.183481690956147858e-01 -2.859544938313490214e-01 -7.361741974063116256e-01