1.520059999999999967e+00 1.676500000000000101e+00 1.533579999999999943e+00 4.172850000000000392e+00 4.630440000000000111e+00 1.784880000000000022e+00 1.850999999999999979e+00 4.864679999999999893e+00 4.715939999999999799e+00 4.793700000000000294e+00 1.895520000000000094e+00 5.179859999999999687e+00 7.214080000000000048e+00 1.753929999999999989e+00 1.482809999999999961e+00 1.041510000000000069e+01 4.381170000000000009e+00 1.105580000000000007e+00 7.924579999999999735e+00 4.507089999999999819e+00 4.735299999999999621e+00 1.067360000000000042e+01 2.150840000000000085e+00 4.477979999999999627e+00 1.741740000000000066e+00 8.165129999999999555e+00 2.028880000000000017e+00 4.519569999999999865e+00 1.085759999999999970e+01 1.659329999999999972e+00 1.558470000000000022e+00 1.144519999999999982e+01 4.769319999999999560e+00 4.861760000000000304e+00 7.689160000000000217e+00 4.649099999999999788e+00 8.071830000000000283e+00 7.888390000000000235e+00 1.432590000000000030e+00 1.101249999999999929e+01 1.102829999999999977e+01 1.957410000000000094e+00 7.737009999999999721e+00 1.077180000000000071e+01 4.666199999999999903e+00 1.108270000000000088e+01 8.282080000000000553e+00 4.997069999999999901e+00 1.799430000000000085e+00 1.754629999999999912e+00 8.010839999999999961e+00 5.004970000000000141e+00 4.331120000000000303e+00 7.871209999999999596e+00 1.161829999999999918e+00 3.914289999999999825e+00 1.113049999999999962e+01 4.442070000000000185e+00 1.157289999999999930e+00 1.088930000000000042e+01 7.801770000000000316e+00 1.967249999999999943e+00 8.084680000000000533e+00 1.127619999999999933e+01 4.963639999999999830e+00 7.283479999999999954e+00 7.205549999999999677e+00 4.384330000000000283e+00 1.120100000000000051e+01 1.059929999999999950e+01 1.361669999999999936e+00 1.039090000000000025e+01 1.961540000000000061e+00 7.701170000000000293e+00 8.002039999999999154e+00 4.598910000000000053e+00 1.037860000000000049e+01 7.434289999999999843e+00 1.692209999999999992e+00 1.027609999999999957e+01 1.091499999999999915e+01 4.846359999999999779e+00 7.547189999999999621e+00 1.061640000000000050e+01 8.183479999999999421e+00 8.091350000000000264e+00 7.944560000000000066e+00 1.127730000000000032e+01 1.101239999999999952e+01 7.967660000000000409e+00 7.966490000000000293e+00 1.076629999999999932e+01 1.144469999999999921e+01 1.131240000000000023e+01 7.554389999999999716e+00 1.140099999999999980e+01 4.325580000000000425e+00 1.419429999999999970e+00 1.396949999999999914e+00 1.244390000000000107e+00 4.595229999999999926e+00 1.441359999999999975e+00 4.664740000000000109e+00 4.586190000000000211e+00 4.679590000000000138e+00 1.284119999999999928e+00 1.783639999999999892e+00 4.611150000000000304e+00 1.031320000000000014e+01 1.424180000000000001e+00 1.366489999999999982e+00 7.288540000000000241e+00 4.693819999999999659e+00 1.480240000000000000e+00 1.060839999999999961e+01 4.647269999999999790e+00 4.206129999999999924e+00 7.377819999999999823e+00 1.364789999999999948e+00 4.436110000000000220e+00 4.678560000000000052e+00 7.689400000000000013e+00 1.686569999999999903e+00 1.684209999999999985e+00 1.077379999999999960e+01 1.602610000000000090e+00 4.549979999999999691e+00 1.085459999999999958e+01 4.537819999999999965e+00 1.635580000000000034e+00 7.536270000000000024e+00 4.766589999999999883e+00 1.088160000000000061e+01 7.533360000000000056e+00 1.741440000000000099e+00 7.315089999999999648e+00 1.059360000000000035e+01 1.580559999999999965e+00 1.073140000000000072e+01 1.088039999999999985e+01 4.580370000000000275e+00 7.628059999999999619e+00 7.650019999999999598e+00 4.700759999999999827e+00 4.551160000000000316e+00 1.419659999999999922e+00 7.752740000000000187e+00 1.812079999999999913e+00 4.396080000000000432e+00 7.576999999999999957e+00 4.426409999999999734e+00 4.653810000000000002e+00 1.080760000000000076e+01 1.139680000000000026e+00 1.241719999999999935e+00 1.067919999999999980e+01 1.094580000000000020e+01 1.287169999999999925e+00 7.589030000000000165e+00 7.562929999999999708e+00 4.590080000000000382e+00 7.450450000000000017e+00 1.036490000000000045e+01 4.189110000000000333e+00 1.031799999999999962e+01 7.186250000000000249e+00 1.216399999999999926e+00 1.061270000000000024e+01 4.717629999999999768e+00 7.544030000000000236e+00 7.523399999999999643e+00 1.689049999999999940e+00 1.082029999999999959e+01 7.795589999999999797e+00 4.416439999999999699e+00 1.064579999999999949e+01 1.055289999999999928e+01 1.552929999999999922e+00 7.267489999999999561e+00 1.084510000000000041e+01 1.064819999999999922e+01 7.395389999999999908e+00 7.741489999999999760e+00 7.136820000000000164e+00 1.068060000000000009e+01 7.551999999999999602e+00 1.068539999999999957e+01 1.043740000000000023e+01 1.094769999999999932e+01 7.697879999999999612e+00 7.657060000000000421e+00 1.086720000000000041e+01
1.174770000000000092e+00 1.767570000000000086e+00 1.540259999999999962e+00 3.907659999999999911e+00 4.732230000000000381e+00 1.614679999999999893e+00 1.647080000000000100e+00 4.782549999999999635e+00 4.756649999999999601e+00 4.541699999999999626e+00 1.984410000000000007e+00 4.974230000000000373e+00 7.181639999999999802e+00 1.837800000000000100e+00 1.533819999999999961e+00 1.033150000000000013e+01 4.607039999999999580e+00 1.034450000000000092e+00 7.604169999999999874e+00 4.641840000000000188e+00 4.861329999999999707e+00 1.061749999999999972e+01 2.355760000000000076e+00 4.601950000000000429e+00 1.734390000000000098e+00 7.818819999999999659e+00 1.992450000000000054e+00 4.560819999999999652e+00 1.047020000000000017e+01 1.656549999999999967e+00 1.484539999999999971e+00 1.078790000000000049e+01 4.860570000000000057e+00 4.607590000000000074e+00 7.591000000000000192e+00 4.462729999999999642e+00 8.299120000000000275e+00 7.617429999999999701e+00 1.455600000000000005e+00 1.104710000000000036e+01 1.057189999999999941e+01 1.916479999999999961e+00 7.664039999999999964e+00 1.053069999999999951e+01 4.571410000000000196e+00 1.072139999999999915e+01 8.025280000000000413e+00 5.097920000000000229e+00 1.241060000000000052e+00 1.708269999999999955e+00 7.864700000000000024e+00 4.846739999999999604e+00 4.607859999999999623e+00 7.731309999999999683e+00 7.978359999999999896e-01 4.427489999999999704e+00 1.128379999999999939e+01 4.365920000000000023e+00 1.813979999999999926e+00 1.109500000000000064e+01 7.736629999999999896e+00 1.977800000000000002e+00 7.923919999999999852e+00 1.128340000000000032e+01 5.118420000000000414e+00 7.418400000000000105e+00 7.134310000000000151e+00 4.514809999999999768e+00 1.074510000000000076e+01 1.040349999999999930e+01 1.614940000000000042e+00 1.028839999999999932e+01 1.884239999999999915e+00 7.838219999999999743e+00 8.020239999999999370e+00 4.474389999999999645e+00 1.033089999999999975e+01 7.335320000000000285e+00 1.527509999999999923e+00 1.039140000000000086e+01 1.114739999999999931e+01 4.817840000000000344e+00 7.411050000000000360e+00 1.060979999999999990e+01 8.092840000000000700e+00 7.724300000000000388e+00 7.964929999999999843e+00 1.071230000000000082e+01 1.061500000000000021e+01 7.849549999999999805e+00 7.959719999999999906e+00 1.042839999999999989e+01 1.076670000000000016e+01 1.107010000000000005e+01 7.607319999999999638e+00 1.120880000000000010e+01 4.274580000000000268e+00 1.622379999999999933e+00 1.551539999999999919e+00 1.081269999999999953e+00 4.952280000000000015e+00 1.615790000000000060e+00 4.596000000000000085e+00 4.668339999999999712e+00 4.753569999999999851e+00 1.252180000000000071e+00 1.767239999999999922e+00 4.498000000000000220e+00 1.053710000000000058e+01 1.659399999999999986e+00 1.579069999999999974e+00 7.489390000000000214e+00 4.779180000000000206e+00 1.292960000000000109e+00 1.108099999999999952e+01 5.028710000000000235e+00 4.187509999999999621e+00 7.336500000000000021e+00 1.382449999999999957e+00 4.310380000000000322e+00 4.459920000000000329e+00 7.466660000000000075e+00 1.609739999999999949e+00 1.443179999999999907e+00 1.044979999999999976e+01 1.765320000000000000e+00 4.515830000000000233e+00 1.037780000000000058e+01 4.510480000000000267e+00 1.348970000000000002e+00 7.594579999999999664e+00 4.738030000000000186e+00 1.095550000000000068e+01 7.457959999999999923e+00 1.858309999999999906e+00 7.326909999999999812e+00 1.025990000000000002e+01 1.465470000000000050e+00 1.098300000000000054e+01 1.057160000000000011e+01 4.838739999999999597e+00 7.558799999999999741e+00 7.306199999999999584e+00 4.707830000000000403e+00 4.728860000000000063e+00 1.537530000000000063e+00 7.548799999999999955e+00 1.633799999999999919e+00 4.709209999999999674e+00 7.457150000000000389e+00 4.392529999999999824e+00 4.511750000000000149e+00 1.067820000000000036e+01 1.064659999999999940e+00 1.436160000000000103e+00 1.058140000000000036e+01 1.085190000000000055e+01 1.586219999999999963e+00 7.476799999999999891e+00 7.635279999999999845e+00 4.569689999999999586e+00 7.590099999999999625e+00 1.047979999999999912e+01 4.643600000000000172e+00 1.035510000000000019e+01 7.405009999999999870e+00 1.565569999999999906e+00 1.066039999999999921e+01 4.501909999999999634e+00 7.339450000000000252e+00 7.701310000000000322e+00 1.636810000000000098e+00 1.042009999999999970e+01 7.704270000000000174e+00 4.535529999999999617e+00 1.052970000000000006e+01 1.078139999999999965e+01 1.663089999999999957e+00 7.026760000000000339e+00 1.069079999999999941e+01 1.087369999999999948e+01 7.443109999999999893e+00 7.731239999999999668e+00 7.612689999999999735e+00 1.041510000000000069e+01 7.556939999999999991e+00 1.085490000000000066e+01 9.994870000000000587e+00 1.098809999999999931e+01 7.600869999999999571e+00 7.382810000000000095e+00 1.063620000000000054e+01
1.520960000000000090e+00 1.567390000000000061e+00 1.738699999999999912e+00 4.084329999999999572e+00 4.593919999999999781e+00 1.590680000000000094e+00 1.507779999999999898e+00 4.609270000000000422e+00 4.307019999999999627e+00 4.238769999999999705e+00 1.328789999999999916e+00 4.006450000000000067e+00 7.268229999999999968e+00 1.002340000000000009e+00 1.369939999999999936e+00 9.957269999999999399e+00 4.972879999999999967e+00 1.426020000000000065e+00 7.783489999999999576e+00 4.297539999999999694e+00 4.254220000000000113e+00 1.061059999999999981e+01 1.603900000000000103e+00 4.446900000000000297e+00 1.679419999999999913e+00 7.440159999999999663e+00 1.573609999999999953e+00 4.346919999999999895e+00 1.042430000000000057e+01 1.513959999999999972e+00 1.488380000000000036e+00 1.079429999999999978e+01 4.880289999999999573e+00 4.357020000000000337e+00 7.690439999999999721e+00 4.616509999999999891e+00 7.806449999999999889e+00 7.613249999999999851e+00 1.359299999999999953e+00 1.024750000000000050e+01 1.067929999999999957e+01 1.497079999999999966e+00 7.219920000000000115e+00 1.058339999999999925e+01 4.630980000000000096e+00 1.085260000000000069e+01 7.591779999999999973e+00 4.825709999999999944e+00 1.478010000000000046e+00 1.641899999999999915e+00 7.651740000000000208e+00 4.434720000000000439e+00 4.370020000000000238e+00 7.482450000000000045e+00 1.157620000000000093e+00 4.089199999999999946e+00 1.014990000000000059e+01 4.276530000000000165e+00 1.719959999999999933e+00 1.055070000000000086e+01 7.974479999999999791e+00 1.619750000000000023e+00 7.260150000000000325e+00 1.065600000000000058e+01 4.710429999999999673e+00 7.296680000000000277e+00 7.060170000000000279e+00 4.358480000000000132e+00 1.058140000000000036e+01 9.930360000000000298e+00 1.452169999999999961e+00 1.019969999999999999e+01 1.860570000000000057e+00 7.542270000000000252e+00 7.670989999999999753e+00 5.051230000000000331e+00 1.056700000000000017e+01 7.522560000000000358e+00 1.652060000000000084e+00 1.000779999999999959e+01 1.059110000000000085e+01 4.815170000000000172e+00 7.557140000000000413e+00 1.052190000000000047e+01 7.872469999999999857e+00 7.595959999999999823e+00 7.489230000000000054e+00 1.071180000000000021e+01 1.064370000000000083e+01 7.666019999999999612e+00 7.686969999999999636e+00 9.804539999999999367e+00 1.065799999999999947e+01 1.055569999999999986e+01 7.401399999999999757e+00 1.070679999999999943e+01 4.440909999999999691e+00 1.902749999999999941e+00 1.619599999999999929e+00 1.369510000000000005e+00 4.655400000000000205e+00 1.607050000000000090e+00 4.707370000000000054e+00 4.573540000000000383e+00 4.863500000000000156e+00 1.498099999999999987e+00 1.886109999999999953e+00 4.781889999999999752e+00 9.971989999999999910e+00 1.619150000000000089e+00 1.424039999999999973e+00 7.171260000000000190e+00 4.665750000000000064e+00 1.759579999999999922e+00 1.061350000000000016e+01 4.728880000000000194e+00 4.471219999999999750e+00 7.222949999999999982e+00 1.819909999999999917e+00 4.619130000000000180e+00 4.783330000000000304e+00 7.849709999999999965e+00 1.758780000000000010e+00 1.614929999999999977e+00 1.065520000000000067e+01 1.844149999999999956e+00 4.509680000000000355e+00 1.058689999999999998e+01 4.840119999999999756e+00 1.679419999999999913e+00 7.747840000000000060e+00 4.671299999999999564e+00 1.064910000000000068e+01 7.737630000000000230e+00 1.794419999999999904e+00 7.622449999999999726e+00 1.049050000000000082e+01 1.786280000000000090e+00 1.049089999999999989e+01 1.085950000000000060e+01 4.833149999999999835e+00 7.745510000000000339e+00 7.727109999999999701e+00 4.763630000000000031e+00 4.586979999999999613e+00 1.479170000000000096e+00 7.938659999999999606e+00 1.755679999999999907e+00 4.635250000000000092e+00 7.719730000000000203e+00 4.170329999999999870e+00 4.468609999999999971e+00 1.067919999999999980e+01 1.506960000000000077e+00 1.307199999999999918e+00 1.077110000000000056e+01 1.069410000000000061e+01 1.646970000000000045e+00 7.692960000000000242e+00 7.779139999999999944e+00 4.670370000000000132e+00 7.717329999999999579e+00 1.044400000000000084e+01 4.511750000000000149e+00 1.048000000000000043e+01 7.359770000000000145e+00 1.433359999999999967e+00 1.051130000000000031e+01 4.780330000000000190e+00 7.357490000000000308e+00 7.703479999999999883e+00 1.876719999999999944e+00 1.044640000000000057e+01 7.777370000000000339e+00 4.640100000000000335e+00 1.042500000000000071e+01 1.063509999999999955e+01 1.717230000000000034e+00 7.321369999999999933e+00 1.090130000000000088e+01 1.059810000000000052e+01 7.631330000000000169e+00 7.700859999999999594e+00 7.701699999999999768e+00 1.047450000000000081e+01 7.655610000000000248e+00 1.057859999999999978e+01 1.030899999999999928e+01 1.073259999999999970e+01 7.736469999999999736e+00 7.052220000000000155e+00 1.064550000000000018e+01
1.404260000000000064e+00 1.910709999999999908e+00 1.662749999999999950e+00 3.937669999999999781e+00 4.306060000000000443e+00 2.022969999999999935e+00 1.798030000000000017e+00 4.753449999999999953e+00 4.665849999999999831e+00 4.218549999999999578e+00 1.524280000000000079e+00 4.355920000000000236e+00 7.401760000000000339e+00 1.288149999999999906e+00 1.449170000000000069e+00 9.916309999999999292e+00 4.260830000000000339e+00 1.059129999999999905e+00 8.201169999999999405e+00 4.616500000000000270e+00 4.569309999999999761e+00 1.076309999999999967e+01 1.680020000000000069e+00 4.170869999999999855e+00 1.733319999999999972e+00 7.710639999999999716e+00 2.039839999999999876e+00 4.562570000000000014e+00 1.026870000000000083e+01 1.601099999999999968e+00 1.395860000000000101e+00 1.073019999999999996e+01 4.691449999999999676e+00 4.836859999999999715e+00 7.704489999999999839e+00 4.818469999999999587e+00 7.748719999999999608e+00 7.417539999999999800e+00 1.825490000000000057e+00 1.071189999999999998e+01 1.038560000000000016e+01 1.677769999999999984e+00 7.824499999999999567e+00 1.081189999999999962e+01 4.354149999999999743e+00 1.114819999999999922e+01 7.572930000000000383e+00 4.994889999999999830e+00 1.727519999999999945e+00 1.533959999999999990e+00 7.807010000000000005e+00 4.762749999999999595e+00 4.376140000000000363e+00 7.711850000000000094e+00 1.100780000000000092e+00 4.204170000000000407e+00 1.061050000000000004e+01 4.280330000000000190e+00 1.416130000000000111e+00 1.060929999999999929e+01 7.321780000000000399e+00 1.284739999999999993e+00 7.570780000000000065e+00 1.082329999999999970e+01 3.996119999999999894e+00 6.891440000000000232e+00 7.010539999999999772e+00 4.369220000000000326e+00 1.070330000000000048e+01 1.057249999999999979e+01 1.525519999999999987e+00 1.079330000000000034e+01 1.514950000000000019e+00 7.309110000000000440e+00 7.811689999999999579e+00 5.089310000000000223e+00 1.052480000000000082e+01 7.914780000000000371e+00 1.620440000000000103e+00 1.025179999999999936e+01 1.087490000000000023e+01 4.906729999999999592e+00 7.862529999999999575e+00 1.038279999999999959e+01 7.738640000000000185e+00 7.376999999999999780e+00 7.504780000000000229e+00 1.115210000000000079e+01 1.046920000000000073e+01 7.894140000000000157e+00 7.809700000000000308e+00 1.007549999999999990e+01 1.078999999999999915e+01 1.110950000000000060e+01 6.815789999999999793e+00 1.123709999999999987e+01 4.165919999999999845e+00 1.755309999999999926e+00 1.487470000000000070e+00 9.661370000000000235e-01 4.714190000000000325e+00 1.782000000000000028e+00 4.597610000000000419e+00 4.598569999999999602e+00 4.627239999999999576e+00 1.286389999999999922e+00 1.878649999999999931e+00 4.812280000000000335e+00 1.012149999999999928e+01 1.672579999999999956e+00 1.199170000000000069e+00 7.159270000000000245e+00 4.534650000000000070e+00 1.698450000000000015e+00 1.076730000000000054e+01 4.812030000000000030e+00 4.338470000000000049e+00 7.237119999999999997e+00 1.925079999999999902e+00 4.494360000000000355e+00 4.775529999999999831e+00 7.579909999999999926e+00 1.790219999999999922e+00 1.462099999999999955e+00 1.102009999999999934e+01 1.727389999999999981e+00 4.733819999999999695e+00 1.051500000000000057e+01 4.605260000000000353e+00 1.799569999999999892e+00 7.784220000000000361e+00 4.988199999999999967e+00 1.099840000000000018e+01 7.809580000000000410e+00 1.979740000000000055e+00 7.533210000000000406e+00 1.054460000000000086e+01 1.564119999999999955e+00 1.045720000000000027e+01 1.101490000000000080e+01 4.555810000000000137e+00 7.752469999999999750e+00 7.869480000000000253e+00 4.478030000000000399e+00 4.442689999999999806e+00 1.499640000000000084e+00 7.900520000000000209e+00 1.750019999999999909e+00 4.384669999999999845e+00 7.561189999999999856e+00 4.013189999999999813e+00 4.496159999999999712e+00 1.037229999999999919e+01 1.168649999999999967e+00 1.414390000000000036e+00 1.092939999999999934e+01 1.087119999999999997e+01 1.732590000000000074e+00 7.671529999999999738e+00 7.942239999999999966e+00 4.697189999999999976e+00 7.604849999999999888e+00 1.044860000000000078e+01 4.544719999999999871e+00 1.025689999999999991e+01 7.337699999999999889e+00 1.695300000000000029e+00 1.059660000000000046e+01 4.784469999999999779e+00 7.471770000000000245e+00 7.549750000000000405e+00 1.468169999999999975e+00 1.048789999999999978e+01 7.781290000000000262e+00 4.422419999999999796e+00 1.043800000000000061e+01 1.053880000000000017e+01 1.736129999999999951e+00 7.296590000000000131e+00 1.084259999999999913e+01 1.080530000000000079e+01 7.916680000000000383e+00 8.123369999999999536e+00 7.726930000000000298e+00 1.061379999999999946e+01 7.862759999999999749e+00 1.059009999999999962e+01 1.079340000000000011e+01 1.060030000000000072e+01 8.008860000000000312e+00 7.451929999999999943e+00 1.087500000000000000e+01
1.284189999999999943e+00 1.568519999999999914e+00 1.764219999999999899e+00 4.062199999999999811e+00 4.335020000000000095e+00 1.267730000000000024e+00 1.964199999999999946e+00 4.678180000000000227e+00 4.787759999999999572e+00 4.733290000000000219e+00 1.432279999999999998e+00 4.710309999999999775e+00 7.284769999999999968e+00 1.838780000000000081e+00 1.744380000000000042e+00 1.030879999999999974e+01 4.410720000000000418e+00 9.747440000000000548e-01 7.531069999999999709e+00 4.323800000000000310e+00 4.817029999999999923e+00 1.046349999999999980e+01 1.889199999999999990e+00 4.589559999999999640e+00 1.864049999999999985e+00 7.945190000000000197e+00 1.597580000000000000e+00 4.542200000000000237e+00 1.075339999999999918e+01 1.547099999999999920e+00 1.811280000000000001e+00 1.120320000000000071e+01 4.868879999999999875e+00 4.895240000000000258e+00 7.893530000000000157e+00 4.242689999999999628e+00 7.878190000000000026e+00 7.879170000000000229e+00 1.305150000000000032e+00 1.099929999999999986e+01 1.073349999999999937e+01 1.581879999999999953e+00 7.393650000000000055e+00 1.050150000000000006e+01 4.902470000000000105e+00 1.064000000000000057e+01 7.909819999999999851e+00 4.859820000000000029e+00 1.464409999999999989e+00 1.347369999999999957e+00 7.638499999999999623e+00 4.772409999999999819e+00 4.371139999999999581e+00 7.844829999999999970e+00 1.070170000000000066e+00 4.272140000000000271e+00 1.060539999999999949e+01 4.544120000000000381e+00 1.145720000000000072e+00 1.084570000000000078e+01 7.894779999999999909e+00 1.657129999999999992e+00 7.848329999999999806e+00 1.114199999999999946e+01 4.529869999999999841e+00 7.441510000000000069e+00 7.475399999999999601e+00 4.156959999999999766e+00 1.088739999999999952e+01 1.054840000000000089e+01 1.126009999999999955e+00 1.041210000000000058e+01 2.017729999999999801e+00 7.457329999999999792e+00 7.914920000000000400e+00 4.498090000000000366e+00 1.055499999999999972e+01 7.384330000000000283e+00 1.728350000000000053e+00 1.036369999999999969e+01 1.063100000000000023e+01 4.812380000000000102e+00 7.743940000000000268e+00 1.108530000000000015e+01 7.812689999999999912e+00 7.898419999999999774e+00 7.963040000000000340e+00 1.086870000000000047e+01 1.079219999999999935e+01 7.671249999999999680e+00 7.902619999999999756e+00 1.084360000000000035e+01 1.093979999999999997e+01 1.071039999999999992e+01 7.353640000000000398e+00 1.101169999999999938e+01 4.397499999999999964e+00 1.442309999999999981e+00 1.550529999999999964e+00 1.267700000000000049e+00 4.346479999999999677e+00 1.571809999999999929e+00 4.715639999999999610e+00 4.659399999999999764e+00 4.808930000000000149e+00 1.315660000000000052e+00 1.691589999999999927e+00 4.433620000000000339e+00 1.065509999999999913e+01 1.660530000000000062e+00 1.718879999999999963e+00 7.652020000000000266e+00 4.633329999999999949e+00 1.495460000000000012e+00 1.089320000000000022e+01 4.926650000000000418e+00 4.364569999999999617e+00 7.537519999999999776e+00 1.326100000000000056e+00 4.423499999999999766e+00 4.591179999999999595e+00 7.902330000000000076e+00 1.444010000000000016e+00 1.525430000000000064e+00 1.091920000000000002e+01 1.748939999999999939e+00 4.611379999999999590e+00 1.088269999999999982e+01 4.562299999999999578e+00 1.443990000000000107e+00 7.549599999999999866e+00 4.822370000000000267e+00 1.094289999999999985e+01 7.391160000000000174e+00 1.927589999999999915e+00 7.304820000000000313e+00 1.074119999999999919e+01 1.648320000000000007e+00 1.093360000000000021e+01 1.098320000000000007e+01 4.711570000000000036e+00 7.663949999999999818e+00 7.795609999999999928e+00 4.884850000000000136e+00 4.720110000000000028e+00 1.398409999999999931e+00 7.892129999999999868e+00 1.691619999999999902e+00 4.399280000000000079e+00 7.665320000000000356e+00 4.498179999999999623e+00 4.727759999999999962e+00 1.090680000000000049e+01 1.243460000000000010e+00 1.353779999999999983e+00 1.059539999999999971e+01 1.062449999999999939e+01 1.420139999999999958e+00 7.452469999999999928e+00 7.669679999999999609e+00 4.762059999999999960e+00 7.621929999999999872e+00 1.035629999999999917e+01 4.238389999999999880e+00 1.054320000000000057e+01 7.427710000000000257e+00 1.243079999999999963e+00 1.074189999999999934e+01 4.673560000000000159e+00 7.700000000000000178e+00 7.749640000000000306e+00 1.576589999999999936e+00 1.100249999999999950e+01 7.657689999999999664e+00 4.444899999999999629e+00 1.057980000000000054e+01 1.093069999999999986e+01 1.761640000000000095e+00 7.313209999999999766e+00 1.092890000000000050e+01 1.098840000000000039e+01 7.517210000000000392e+00 7.748190000000000133e+00 7.357219999999999871e+00 1.090620000000000012e+01 7.566930000000000156e+00 1.071759999999999913e+01 1.072920000000000051e+01 1.100730000000000075e+01 7.455400000000000027e+00 7.738710000000000200e+00 1.062190000000000012e+01
1.450290000000000079e+00 1.915939999999999976e+00 1.564119999999999955e+00 4.540280000000000094e+00 4.923799999999999955e+00 1.948909999999999920e+00 1.538389999999999924e+00 4.672019999999999840e+00 4.752069999999999794e+00 4.368599999999999817e+00 1.790510000000000046e+00 4.677200000000000024e+00 7.426289999999999836e+00 1.671399999999999997e+00 1.502299999999999969e+00 1.044829999999999970e+01 4.538649999999999629e+00 1.361269999999999980e+00 7.678609999999999935e+00 4.868520000000000181e+00 4.414869999999999628e+00 1.083300000000000018e+01 1.487889999999999935e+00 4.182220000000000049e+00 1.790240000000000054e+00 7.607240000000000002e+00 2.046590000000000131e+00 4.681020000000000181e+00 1.079090000000000060e+01 1.701889999999999903e+00 1.571229999999999905e+00 1.083460000000000001e+01 4.832709999999999617e+00 4.916360000000000063e+00 7.617379999999999818e+00 4.787079999999999558e+00 7.896910000000000096e+00 7.625989999999999824e+00 1.999430000000000041e+00 1.015199999999999925e+01 1.088439999999999941e+01 1.630260000000000042e+00 7.776089999999999947e+00 1.118699999999999939e+01 4.720710000000000406e+00 1.122470000000000034e+01 7.905739999999999768e+00 4.932159999999999656e+00 1.798300000000000010e+00 1.992119999999999891e+00 8.125059999999999505e+00 4.538090000000000401e+00 4.413269999999999804e+00 7.890819999999999723e+00 1.156009999999999982e+00 4.154530000000000278e+00 1.090339999999999954e+01 4.098690000000000389e+00 1.255319999999999991e+00 1.071759999999999913e+01 7.796739999999999782e+00 1.647909999999999986e+00 7.659699999999999953e+00 1.069679999999999964e+01 4.333669999999999689e+00 7.209450000000000358e+00 7.155549999999999855e+00 4.733030000000000292e+00 1.083880000000000088e+01 1.042989999999999995e+01 1.674439999999999928e+00 1.061790000000000056e+01 1.357760000000000078e+00 7.914830000000000254e+00 7.917860000000000120e+00 4.664520000000000444e+00 1.016230000000000011e+01 7.594820000000000348e+00 1.626400000000000068e+00 1.016440000000000055e+01 1.116080000000000005e+01 4.880790000000000184e+00 7.360170000000000101e+00 1.032349999999999923e+01 7.526799999999999713e+00 7.802080000000000126e+00 7.738199999999999967e+00 1.076590000000000025e+01 1.054669999999999952e+01 8.186730000000000729e+00 7.610640000000000072e+00 1.022830000000000084e+01 1.067970000000000041e+01 1.073980000000000068e+01 7.647630000000000372e+00 1.102860000000000085e+01 4.273659999999999570e+00 1.535479999999999956e+00 1.409149999999999903e+00 1.130670000000000064e+00 4.832849999999999646e+00 1.483899999999999997e+00 4.563760000000000261e+00 4.764260000000000161e+00 4.641110000000000291e+00 1.454380000000000006e+00 1.943880000000000052e+00 4.725039999999999907e+00 1.001810000000000045e+01 1.372670000000000057e+00 1.049520000000000008e+00 7.083429999999999893e+00 4.582089999999999996e+00 1.713289999999999980e+00 1.061410000000000053e+01 4.755309999999999704e+00 4.022730000000000139e+00 7.426479999999999748e+00 1.684569999999999901e+00 4.512500000000000178e+00 4.589909999999999712e+00 7.486220000000000319e+00 1.919259999999999966e+00 1.822549999999999892e+00 1.072230000000000061e+01 1.459920000000000107e+00 4.379940000000000389e+00 1.070010000000000083e+01 4.531139999999999723e+00 2.005599999999999827e+00 8.055780000000000385e+00 4.908089999999999620e+00 1.071770000000000067e+01 7.709539999999999615e+00 1.739109999999999934e+00 7.733080000000000176e+00 1.051820000000000022e+01 1.919329999999999981e+00 1.051699999999999946e+01 1.094110000000000049e+01 4.843390000000000306e+00 7.775739999999999874e+00 7.466099999999999959e+00 4.506520000000000081e+00 4.687429999999999986e+00 1.471039999999999903e+00 7.752200000000000202e+00 1.935699999999999976e+00 4.937730000000000175e+00 7.565809999999999924e+00 4.306460000000000399e+00 4.460370000000000168e+00 1.056939999999999991e+01 1.320859999999999923e+00 9.293909999999999672e-01 1.106930000000000014e+01 1.100600000000000023e+01 1.530419999999999892e+00 7.714809999999999945e+00 7.921120000000000161e+00 4.596040000000000347e+00 7.618109999999999715e+00 1.063979999999999926e+01 4.366520000000000401e+00 1.023859999999999992e+01 7.158430000000000071e+00 1.515209999999999946e+00 1.079160000000000075e+01 4.878610000000000113e+00 7.277330000000000076e+00 7.618949999999999889e+00 1.871979999999999977e+00 1.050329999999999941e+01 7.923739999999999561e+00 4.579989999999999561e+00 1.060139999999999993e+01 1.025130000000000052e+01 1.932790000000000008e+00 7.396880000000000344e+00 1.075469999999999970e+01 1.082300000000000040e+01 7.850189999999999557e+00 7.819259999999999877e+00 7.677279999999999660e+00 1.074360000000000070e+01 7.690470000000000361e+00 1.084849999999999959e+01 1.033769999999999989e+01 1.086200000000000010e+01 7.979639999999999844e+00 7.472269999999999968e+00 1.100760000000000005e+01