-1.052418741345079070e+04
-1.052457545688174832e+04
-1.052356173914465035e+04
-1.052274239809579740e+04
-1.052572535240588513e+04
-1.052393734755091282e+04
-1.052260993642859103e+04
-1.052457199752512497e+04
-1.052403635006015793e+04
-1.052247254850973513e+04
-1.052337179703795846e+04
-1.052502111931827312e+04
-1.052216461833882568e+04
-1.052207071222816376e+04
-1.052349664540814956e+04
-1.052595818195322499e+04
-1.052336125171142339e+04
-1.052342256983391417e+04
-1.052205680103346094e+04
-1.052219257220417967e+04
-1.052261245884884374e+04
-1.052375486503634056e+04
-1.052349651584599815e+04
-1.052446112027106574e+04
-1.052378595693819625e+04
-1.052283376732549004e+04
-1.052254660008195242e+04
-1.052401434988502660e+04
-1.052563987019798151e+04
-1.052307863551039190e+04
-1.052448199890100659e+04
-1.052458016408012554e+04
-1.052297632247068941e+04
-1.052457367502029592e+04
-1.052347273146463522e+04
-1.052491101341110152e+04
-1.052363419884889117e+04
-1.052464774016502997e+04
-1.052350941723355209e+04
-1.052455101478718825e+04
-1.052481550229524873e+04
-1.052398589773512685e+04
-1.052256112702822429e+04
-1.052569163310225304e+04
-1.052352955821824980e+04
-1.052407391935292981e+04
-1.052515582878268106e+04
-1.052620313784284917e+04
-1.052422774739562374e+04
-1.052265153670126892e+04
-1.052529932418913450e+04
-1.052334470711226822e+04
-1.052516057763007484e+04
-1.052247793582565646e+04
-1.052324410578614697e+04
-1.052336230966551011e+04
-1.052280036433645182e+04
-1.052329055548945507e+04
-1.052530253811356852e+04
-1.052395579966590230e+04
-1.052482303701477940e+04
-1.052259605136615755e+04
-1.052353112596950086e+04
-1.052489579080814838e+04
-1.052337235412942209e+04
-1.052414474085088659e+04
-1.052457059847677374e+04
-1.052522940477616794e+04
-1.052292226000880328e+04
-1.052428063705595923e+04
-1.052496777630893121e+04
-1.052354662295964408e+04
-1.052268763918993682e+04
-1.052245343480252996e+04
-1.052282255950089711e+04
-1.052474183774075209e+04
-1.052440873711610220e+04
-1.052207331600362886e+04
-1.052262424815546365e+04
-1.052583964963091421e+04
-1.052486657295859732e+04
-1.052504573456004073e+04
-1.052254355238561038e+04
-1.052340666527783105e+04
-1.052478307341795335e+04
-1.052265674334561845e+04
-1.052526087768832440e+04
-1.052583025572261613e+04
-1.052415276047646148e+04
-1.052492482976378778e+04
-1.052218282307091977e+04
-1.052378037181877698e+04
-1.052225200934998429e+04
-1.052426407739803108e+04
-1.052390145298235984e+04
-1.052559161195485285e+04
-1.052320328330044504e+04
-1.052321279373739890e+04
-1.052332967164681395e+04
-1.052418121600308768e+04
-1.052458308992739512e+04
-1.052337057925199952e+04
-1.052403096726794683e+04
-1.052379604168559126e+04
-1.052396933541504222e+04
-1.052348427978145082e+04
-1.052425214507964120e+04
-1.052437678761100688e+04
-1.052463023994328614e+04
-1.052439813592090104e+04
-1.052472875506470336e+04
-1.052506613649795145e+04
-1.052340312730183359e+04
-1.052462469839020196e+04
-1.052550590980088964e+04
-1.052411896485176476e+04
-1.052337067145745277e+04
-1.052210161080576108e+04
-1.052302039716031322e+04
-1.052304729354023402e+04
-1.052461485056539277e+04
-1.052409393286485101e+04
-1.052349350758718356e+04
-1.052250933294223250e+04
-1.052429946753290096e+04
-1.052489643953135419e+04
-1.052420481163133991e+04
-1.052430701314562975e+04
-1.052270336171368581e+04
-1.052331811309343539e+04
-1.052374467584823833e+04
-1.052464980355533226e+04
-1.052407622728727074e+04
-1.052475763420392832e+04
-1.052526332008571080e+04
-1.052272328739714976e+04
-1.052379196040937859e+04
-1.052347252743889294e+04
-1.052360686048357638e+04
-1.052332626916075242e+04
-1.052314457980442421e+04
-1.052214549116347735e+04
-1.052215455019773799e+04
-1.052337784486518103e+04
-1.052396117487980518e+04
-1.052363431687610500e+04
-1.052437049926694999e+04
-1.052346356704460231e+04
-1.052432622473377160e+04
-1.052235246599138918e+04
-1.052591784519766588e+04
-1.052346262737360848e+04
-1.052306826069335511e+04
-1.052482318533206853e+04
-1.052323511847533337e+04
-1.052269573165867951e+04
-1.052358277252451626e+04
-1.052413615338386444e+04
-1.052374967407770055e+04
-1.052447436327742435e+04
-1.052503586702703615e+04
-1.052328060454044316e+04
-1.052358021147058753e+04
-1.052413246879507824e+04
-1.052465381654712473e+04
-1.052439473124355754e+04
-1.052210262221449921e+04
-1.052190092670054764e+04
-1.052518403055276212e+04
-1.052358547548720526e+04
-1.052460458490048768e+04
-1.052267909727553706e+04
-1.052269337055860342e+04
-1.052381844069776889e+04
-1.052505807736182396e+04
-1.052593272758711646e+04
-1.052384305415309609e+04
-1.052522946541881720e+04
-1.052458399457827181e+04
-1.052464127072654082e+04
-1.052398617601286060e+04
-1.052255006118630263e+04
-1.052464564878678721e+04
-1.052410753843981547e+04
-1.052590514910101047e+04
-1.052435925602985117e+04
-1.052372566885012384e+04
-1.052458227876589626e+04
-1.052358576350845215e+04
-1.052465942077845648e+04
-1.052518028607032647e+04
-1.052479215717867191e+04
-1.052413718882521425e+04
-1.052508312998305701e+04
-1.052391245525001250e+04
-1.052383080585919561e+04
-1.052390495683343943e+04
-1.052251383188355067e+04
-1.052348876784209460e+04
-1.052397181007194922e+04
