-5.470582471869366303e-01 2.549320773320378208e-01 4.725415069832503701e-01 5.848678618061304846e-01 3.387382132502237408e-01 -2.531605872552898928e-01 -1.462525752302887561e-01 -8.630298561823159798e-01 1.430006439544239949e-01 -6.096928912502991293e-01 -8.973412278429856448e-01 -1.438858233501029371e+00 6.137130681501584695e-01 4.285309057644908631e-02 3.372721702287989620e-01 -2.227706621331630027e-02 8.689968723943866657e-02 6.545000202278054846e-02 -6.251663042835131634e-01 2.074700272322529127e-01 -4.394498666613459448e-01 -1.762486073484129945e-01 -2.167661078149668352e+00 -6.491418412438537677e-02 3.958449855211216839e-01 -1.247730137949197182e+00 -3.702064590373551067e-01 1.526165697701530877e-01 -3.553660516019571669e-01 -2.717861727617883888e-02 2.033778594439335508e-01 -8.940892965671207726e-01 1.175909456518338114e-01 6.718652509656219962e-02 3.337286758546711973e-01 -3.094651753404906724e-01 -3.431013753115318421e-01 -3.598896505004047230e-01 5.724941707417514625e-01 -2.607659104004574346e-01 -4.489331235540559017e-01 -1.297961266151532955e+00 -3.668501409732233265e-01 -1.159001882142874501e-01 4.055123334000364510e-01 -4.633760384410282041e-01 -1.372366934698738161e+00 -4.124111173970322897e-01 -5.558750741407595397e-01 -7.535944497517368390e-01 -6.387412147439106569e-01 -1.417938195535183965e+00 1.702579369872769810e-01 1.506157372915968296e-01 -3.855780563854614706e-02 9.666823373870293556e-01 -1.138430999986060232e+00 -2.322292364355438010e-01 2.272099288479859647e-01 -3.180670580701973615e-01 1.192822173100120398e-01 -9.749206661300130472e-01 -1.047776987913432656e+00 -5.588750373070142663e-01 -1.862865026146440783e+00 1.031747702377180803e-01 2.323089406334816476e-01 1.595472354463240219e-02 -1.509880330290614081e+00 -4.352558831879189682e-01 6.426729456950903974e-02 3.999793194012533082e-01 -4.394940896356857030e-01 8.419025873018322337e-02 -3.492463118622250451e-01 -3.859935466560020512e-01 -8.626051099404019595e-02 2.351412678737509476e-01 -1.282209145535852524e-01 4.674265543581671250e-04 1.116424413825100811e-02 2.370670241400560097e-01 7.630828488507654384e-02 4.222440443194050430e-01 -2.051725922932414736e+00 -4.096348402056354532e-01 -1.693822192512242086e-01 -1.453260524958084998e+00 -1.200637812483717592e+00 -7.076344381176068177e-02 -4.393963877156328163e-02 -5.108262614662804069e-01 -2.424357446469608046e+00 -2.506046021825806047e+00 3.172160229244737617e-01 -1.070833098384012416e+00 1.102231924385842915e-01 3.070776489467778037e-01 3.898342605553432594e-01 3.023874425636085411e-02 -4.208530775102314325e-01 6.914251753602049799e-01 -1.455558062741222902e-01 7.358137287433795803e-01 -1.844514548677985977e-01 5.616893668251686789e-01 2.259454603142491691e-01 -3.926665877956125317e-01 1.742488033111204704e-01 3.803299206167272128e-01 3.274927222521392678e-01 9.139346134123846332e-02 -3.502217884008580473e-01 1.233311905652554108e+00 3.855821701505162680e-01 1.708093357708174054e+00 1.493235008437397704e-01 6.037844961902602003e-01 5.832969177758068335e-01 9.752451393487149289e-02 -6.057359634881582799e-01 -2.909342064302538056e-01 -3.575921127172668745e-01 -6.692005596513382892e-01 6.561450120291165700e-01 1.110305188306000626e-02 -1.426473743803381433e-01 -1.880597410415403570e-01 -1.017889456348630012e-01 1.753312377411798406e-01 1.218691070426959122e+00 3.950500004242705199e-01 -2.798830908310113719e-01 2.861504118920865647e-01 7.048802724133796938e-01 5.084896429151214425e-01 3.351515243430199797e-01 1.909130484835894093e+00 -5.436700474436295671e-02 7.886627541825002030e-01 1.164077239779304662e+00 4.311374901473748467e-01 -1.907218612526649093e-01 -1.765103456500283219e-01 7.152783278101636499e-01 8.880744578362875785e-02 7.195365888625728790e-01 6.376798633597573207e-02 1.477052485152852368e+00 9.206554770707577051e-02 -3.540563316526169901e-02 -3.541416922775052489e-01 -1.584627441337372045e-01 7.975932238959637655e-01 -5.568428373699149114e-01 7.139819775972516824e-01 -6.479411360684671495e-01 1.147425233057874028e+00 -1.835006609194946847e-01 1.331675627658616579e+00 6.671719592586616843e-01 7.006014425356962283e-01 4.523331503718955315e-01 3.212372282655968636e-01 4.741561597672819817e-01 5.296076558242316379e-01 5.905623410833168441e-01 1.016410557811408655e+00 -1.058631157010673646e-01 -1.423172447346858493e-01 7.903869359611173095e-01 3.432386722202376839e-01 -1.698969541037132491e-01 -2.222353584553996841e-01 3.389973804486797748e-01 -2.242356767133241169e-01 3.547047638693888727e-01 2.216389653665717496e+00 3.483937340546057748e-01 -7.531635328622404701e-02 1.780205602237296514e+00 1.576777863392072598e+00 2.450235599767819905e-01 2.031131900847166882e+00 7.782770400808810551e-01 3.988603753063321017e-02 4.029705408167664760e-01 1.620463477171498468e-01 -2.378887487097637934e-02 -1.861170154943839750e-01 -1.612307937950243908e-01 -4.285643301055615528e-01
-3.160168604109828139e-01 4.416054795500912178e-01 5.279318107850091701e-01 3.830840863209542535e-01 -3.083359468329323616e-01 -6.833683665002668328e-02 -2.743963566890953998e-01 -9.751062997781134722e-02 -1.459147322751585818e-01 -1.477792962862726767e-01 -8.109789011638375289e-01 -9.841869219160791493e-01 2.816160143603700927e-01 -6.752025428663750717e-02 1.458391418422755603e-01 -1.938395809436149198e-01 -3.090995644712402068e-01 3.273826790369218642e-01 1.803382040335730907e-01 -3.391351915780175252e-01 -5.904394423523029456e-01 2.091936947902381660e-01 -3.266529999603165479e-01 -6.480342100028334551e-01 -2.880463433617440061e-01 -8.282731694544579470e-01 -2.658685217303761172e-01 -1.528263717879507983e-03 1.979620877492138387e-01 -8.472196286352353667e-01 1.845044195928798592e-01 -1.781975035431516696e-01 7.114756662375798166e-03 1.655728728104263192e-01 2.643443717775514346e-01 2.425445023105985975e-01 -9.420280291926373950e-01 -2.133758511891324997e-02 4.749089787723208556e-01 -6.743571641476019396e-01 2.202458388307442991e-02 -2.233810420231774896e-01 -1.044114708573345568e-01 -1.942149620048706504e-01 4.256769812576835510e-02 -8.114915791337992679e-02 -1.360019468886583649e+00 -9.276257377355816569e-01 7.602258390201668270e-01 3.224291916902417565e-01 -4.862778827220510247e-01 -5.836784694846448573e-01 -4.640018449499984099e-01 -1.432952923764781450e-01 4.171841133019305592e-01 -2.627333185379429614e-01 -1.443474906333843011e+00 -1.105836611015161841e-01 -1.003506705275585054e+00 -7.663851737485520843e-01 -3.980196245732456894e-01 -1.364384687830419107e+00 -4.636017812984135622e-01 -2.638512341916003923e-01 -3.837431629048055903e+00 -7.618415202454621449e-01 6.334663395023197863e-01 -7.308463574396395490e-02 2.368022005146495634e-01 2.285325043131226086e-01 7.110936003081099743e-01 6.013419481889387130e-01 -9.129653075213338687e-01 -1.623717979550522550e+00 -3.294339051374001182e-01 4.934913697457434245e-01 5.251478202841344256e-01 6.235310826742074264e-01 4.613217270167587758e-01 9.173696072331903985e-04 -4.955832192761383537e-01 -4.600680571162910626e-01 9.312900739581958520e-01 1.642775510387781135e-01 -6.961390358924397503e-01 -3.344064186474589029e-01 -8.416624462667550155e-01 -1.078629197383598921e-02 1.267733834749072697e-01 -1.006293781100250917e-01 -5.591666004052773253e-01 -2.539170058047517803e-02 1.908678999121123654e-01 4.425979253695755955e-01 -2.781902765109375952e+00 3.739052480423037117e-02 1.501472822959749598e-01 -8.155539221254709276e-04 5.146829162052092288e-01 5.431439997372398132e-01 -1.153823680380072991e+00 6.556102225719850907e-01 9.765049798967649630e-02 -1.904601229510496097e-01 -3.867252826151347800e-01 1.160863360830197283e-01 -2.677649674206653355e-02 -4.695811388056486679e-02 9.047352063084598828e-02 -2.534593494423988819e-02 8.422933949820438082e-03 -2.480435777476792114e-01 -7.842450847342152809e-01 4.166107572974097617e-01 -8.023014280012479293e-01 -8.671503061053874584e-01 1.096294218749788385e+00 3.821291786075954322e-01 7.645653469324095175e-01 3.940436706477259965e-01 2.677156022400070667e-01 1.512641695083687121e-01 -1.207780851280845502e-01 2.599159036959974856e-01 1.114806161496646464e+00 -1.824994733492687760e-01 1.527548951201226357e-01 2.465811342706773768e-01 2.737978038736136877e-01 5.600253488604788332e-01 3.999222409111172216e-01 2.882268348035258443e-01 2.408609439618982200e-03 5.196250906979884565e-01 -5.574758429677310057e-01 7.510531713890986616e-01 6.144278348284399893e-01 -5.553274291678316626e-02 -5.856129675016915614e-01 1.321191183195680630e+00 -1.296262795404508616e-01 1.884078684093076494e-01 8.017671527647484142e-01 -4.066734435867699893e-01 -1.260843278282186841e-01 -1.871927650562291434e-01 8.851459713378609928e-01 7.457484713508601148e-02 -4.326122749195412398e-01 7.482866643897071457e-01 -3.930779643010982594e-01 4.144109214343247860e-01 2.454601332932287439e-01 5.530628015051326507e-01 -7.985949256868214718e-02 7.222778990510034802e-01 -6.927539214729239170e-01 1.019668659734855737e-01 2.518935476183937761e-01 3.700095125353538017e-01 9.594719356871280747e-01 3.425989817542073879e-01 -1.705052771112002818e-01 -9.444494941480527928e-01 2.696691264204324479e-01 1.311319175505286649e-01 -9.987141689866761707e-02 2.698115655354569112e-02 1.043788692692748210e+00 7.379739696178116981e-01 -6.096805499551345014e-02 -4.035901766781544442e-01 1.408151034249046640e+00 7.050324817204095540e-02 -3.005172221255440479e-01 -5.295588048642051460e-01 -8.246607695156614459e-02 -4.194795942025408841e-01 1.134376884524498363e+00 4.585001984097585304e-01 2.058733721703363828e-02 3.509016909202995915e+00 1.053969746982888367e+00 4.498047275250537935e-01 2.534002140697353411e-01 2.523661163790705264e-01 -3.732619580318504160e-01 3.556907819309750085e+00 -4.991076874868873858e-01 4.890474750452337149e-01 3.821641456105617229e-01 4.646651895650941722e-01
-2.039702416118330253e-01 -1.667062150830395384e-01 -3.659471695436821714e-01 3.919615913093363879e-01 5.992161600968411994e-01 3.500063299561098629e-01 2.820464170292344974e-01 5.670285196457416355e-01 5.535585101942430697e-01 3.154630447904727131e-01 8.234137844834076292e-01 2.744330206201468059e+00 2.457162151678936590e-01 2.471472397642889174e+00 2.235795311870743263e-01 5.191885173815417032e-01 -7.871997964848665985e-01 2.138345359927491252e-01 -5.312048251067800209e-01 1.521401443547374166e+00 1.356221435299686640e+00 -6.098579560731252069e-01 4.132755222791841265e-01 -5.138442223546501042e-01 6.244849619463024859e-02 3.916422602969530375e-01 1.648319837240465269e+00 2.614241128092345545e-01 8.398230790666019185e-01 3.423562696159707652e-01 -4.561337550619518622e-01 -4.685994916194333726e-01 -5.571595972791387741e-01 1.237758885676855103e+00 -5.983949497477651924e-01 -2.331013546271735321e-02 -4.537986791726884017e-01 -4.822273668049120721e-01 1.634198310248403452e+00 1.248475243644758148e+00 2.908473031434699596e-01 9.520897842961866253e-01 1.067474723437352946e+00 -4.251396206973927505e-01 1.830080375541755233e-01 -9.719782956745264269e-01 1.586658612833208304e-01 -4.477545298658393014e-01 1.210926338885915943e+00 -2.069090125228967292e-01 7.431362305410257885e-02 1.090791543768284466e+00 6.844636564461227535e-02 3.747161739787424617e-01 3.495980387744153095e-01 2.688036930970168562e-02 1.967212219424793185e+00 -9.836834999174910721e-02 -7.254007609482719943e-01 -7.419843763256656066e-02 -1.155896503747088966e+00 3.277796573647156486e-01 2.638414639995951272e-01 -3.664855585452366227e-01 8.518938941788170571e-02 2.478029224919700291e-01 1.846247472207344364e-01 -9.791655574459942057e-01 -3.722977943471181828e-01 1.398711486110044477e+00 8.681638349707779256e-02 1.557837060638245674e+00 6.551530804302641009e-02 3.333167851285536165e-01 -4.165171691424117695e-01 -1.289529076230339300e+00 -2.261362361686681810e-01 5.365892293429563864e-01 6.703431578953247816e-02 8.587767373362253931e-01 1.034971865738925217e-01 -5.422703388837143423e-01 -7.982246868318843003e-02 -2.119982541163871470e-01 -5.647577213354603165e-01 -1.655533324264157335e-01 -2.991427103765898488e-01 3.448363557234179200e-01 -1.445895857068626444e-01 -3.759101942859147671e-01 -2.087509508262091473e-01 9.956941512157789775e-01 -4.502454146065554275e-01 6.600536030518628916e-01 -3.357963570153689459e-02 -3.516225254020369784e-01 -3.304371495901534672e-01 -4.884556070979661491e-01 -1.279628272184561100e+00 -5.685233590225503564e-01 -2.446270958696201425e-01 -1.142186867481145007e-01 -3.911388382983648770e-01 2.601169639630536157e-01 -9.636155255386331664e-01 -4.289834199205250914e-02 -6.635600735404968420e-01 4.806368823905778076e-02 1.222778096008959814e+00 4.237625378452793412e-01 9.842326875523144114e-01 3.210027436574699466e-01 2.065187190633171188e-01 -1.036494473029854202e+00 3.275569998311214093e-01 1.163886978145517587e-01 2.022733135267043569e-01 3.869551392375749632e-01 -1.636971502116009169e+00 -1.172890981409336619e-01 -4.132153584652568656e-01 -1.273345524504530424e+00 3.494838817941430253e-01 -5.133798811240830595e-01 -1.903953311514355873e-01 2.071239567470130605e-01 -2.705618134373364847e-01 -3.891560035419236452e-01 -4.494807685269838204e-01 -3.645392334536572410e-01 1.268068078159780010e-02 7.122655091281123729e-01 1.362931500324791045e-01 -1.672929408239885452e-01 1.855688563008242309e-01 -8.987044267380389639e-01 -2.041308841372251770e+00 1.014382471639364153e-01 3.590792387845977984e-01 -1.018358939785515727e+00 -1.135162613649976088e-01 -1.728228694989805692e-01 -7.363382337878739137e-02 -3.322415497873402734e-01 -2.346337321101078788e-02 2.309627110192795651e-01 -1.303775558835942094e+00 -8.629002725830878795e-01 -1.722495134944597994e-01 -1.568443889611563558e+00 5.286198379904341049e-01 6.730813827599643195e-01 -3.119894844222774744e-01 -3.963206396055896086e-01 2.213534700717646464e-01 -5.173841171843548414e-01 -1.153911097887488565e-02 2.192405374954635167e-01 -1.142194580790622860e+00 -4.091185626912508533e-01 -6.461886721550980095e-01 -2.569205685154294927e-01 -4.526843630634539428e-01 -3.497271081530114456e-01 -1.842298257754681340e-02 -1.183852622618636108e+00 -1.064508698832800915e-01 -5.237825645065535829e-01 -2.539134062603287667e-01 4.491305842766890044e-01 1.695107744091885471e-01 -6.485427742077400914e-01 1.867716183587381229e-01 1.035408953276003574e-01 -7.399583470361484339e-02 -2.115966478029066705e-02 -2.318502558298650151e-01 -1.180259763063849915e-01 -3.716287933050719805e-01 -2.379337944371144875e+00 8.761491671628879319e-01 -9.130450117192717707e-02 3.214269756787521692e-01 8.747900820328894378e-01 3.282835935839356623e-01 4.306854902119723327e-01 -8.268153539631430127e-03 4.589306010786229906e-01 -9.532349536433325499e-01 -1.755163571686484125e-01 7.891265811924353946e-01 -1.071129289467962042e+00
-1.414770082222311931e-01 9.646419099198200175e-02 -3.269414777347883633e-02 1.258087055695432388e-01 1.438706538414631586e+00 -9.304369819299450617e-01 -8.678347337663894212e-02 1.439041296045970308e-01 7.983840952277600211e-02 4.000898768371026204e-01 2.360005305495842531e-01 7.555135211498277548e-02 -3.744770613849288665e-01 1.584668578987920906e+00 -9.842748536441267571e-02 2.019688949126449418e-01 1.295089858143242623e+00 1.197198190677224994e-01 -1.679554626860733313e+00 3.099675688978151267e-01 3.084840423749071192e-01 -6.542531943245140369e-02 1.304816855615452686e+00 1.873002371682873091e-01 -1.853384854577522223e-01 -3.169321731356886107e-01 -2.511093611548116389e-01 8.632324591112677803e-02 1.607340566646503488e-01 4.078540941575140022e-01 4.674471231834414486e-01 -1.898322595595519913e-01 -1.264103437088161253e-01 2.200200959733590034e-01 -3.536794079294656723e-01 -9.472833640502177355e-01 -1.786680154213010074e-01 -5.691872178582779718e-01 -8.978883585952817104e-01 3.719424678905048909e-01 5.298431688736222611e-01 -1.220332976904479061e-01 -1.034930213867744531e+00 -1.896209148798587152e-01 3.809269307703133101e-01 -1.106798203596734698e-01 1.789945455225302740e-01 -5.009743083805288932e-02 -1.196600152082375246e+00 -3.530186344175291757e-01 -3.646544188751933008e-02 -9.556379066560011237e-02 2.170360736466918350e-01 -1.017313529240950060e-01 -4.438495383875159378e-02 2.394452945623954665e-01 3.358117836343246093e-02 2.952372046776345904e-01 1.134737353187430298e+00 4.748683553424040693e-01 4.172401633508029395e-01 1.752867062344610094e+00 -5.057874134947119849e-02 2.224605870921531059e-01 3.062962906966708143e+00 1.069902873260982767e+00 -1.999485220500780702e-01 2.565487869985967340e-01 2.413006026021361217e-01 2.579382111458748336e-02 1.039128311106226610e+00 -1.076411363798398746e+00 -1.163835556082331961e-02 -4.815367684963278716e-02 6.708491509970723188e-01 -9.389211081349562171e-01 -6.366467941103564065e-01 -1.136022390546441274e+00 -3.428082695513732792e-01 -5.693527969017360135e-01 -1.926897836107822892e-01 1.131501362751152900e-01 -1.764550669321036658e+00 4.267702143210118648e-01 2.518246420537249564e-01 1.718782461982589216e-01 2.341781326302824484e-01 -6.774013502881963689e-01 7.614188308860755372e-01 -4.348038832525164543e-01 1.114804618834750877e-01 6.756056918417510104e-01 -9.144539762505603242e-02 8.019167909686188145e-02 1.745762590094871447e+00 -2.738389415241622160e-01 2.964178552483787144e-01 -8.188773300691637447e-01 2.310079624348829741e-01 5.900974856321179463e-01 6.535168303796945466e-01 -3.831673900633150720e-01 -1.870230722477162766e-01 5.135984248926224460e-02 4.471138109585451881e-01 1.144598562244555084e-01 -3.224631302519443410e-01 -3.186270443382898665e-01 5.311194644818917343e-01 -4.996239650012719302e-01 1.181909897071479643e+00 3.019184733473548321e-01 4.645119518168006612e-01 -6.507030150821720982e-01 1.055434761563049273e+00 2.026389243959548225e-01 -9.251312534504426699e-01 4.780354402140123971e-01 -5.466936647589498710e-01 1.233707855539083881e-01 -3.199213376686743104e-01 -1.320199765817459958e-01 -4.959807118245639912e-01 -4.442593722311060644e-01 -1.802075405710181766e+00 7.016026301059222203e-02 -7.688236079848187465e-01 5.313056123506240125e-01 -2.939285131695581338e-02 -6.477231065205597549e-01 -1.378296412804683180e-01 -8.300688279009033055e-01 -1.705865239710337156e-01 -8.550470950933652947e-01 6.487098959130936648e-02 9.108801428591530025e-02 -1.235782221567995887e+00 -2.347936547266154805e-01 1.204684728856433518e+00 -1.926566163800275122e+00 2.533313085050664659e-01 1.415083756807744841e-01 -2.647583193861964279e-01 1.286654582898257626e+00 5.059252246240497630e-01 2.535832766146764450e-01 -1.074656328781870451e+00 -5.569878475880984947e-01 9.767266089890954683e-01 3.285813273297809034e-01 1.116589992868558756e+00 -7.791265325647089846e-02 9.199155135815154649e-01 8.190557646284182813e-02 4.778698611705544108e-01 -3.867977877242266826e-01 -3.621265102489834020e-01 -2.504356292829523323e+00 1.236222394428865556e-01 -3.061546229125941543e-01 -3.910740464987508269e-01 -1.231275591950399678e-01 1.074196615536990029e-01 -8.090217774389892869e-01 2.142613391171905302e-01 -1.333538649007834920e-01 -4.282393426662278735e-01 1.663699147898049235e-01 -2.306099556658255390e-01 7.354126366505311929e-02 8.641945659134724345e-01 7.187889120638524254e-01 -1.775536993120664930e-01 1.650884769752168635e-01 1.275380295544789044e-01 5.399090377422263165e-01 1.271031531661173108e+00 -1.769021817715034917e-01 5.326986360423250355e-01 9.348942463668827307e-02 2.665442076406364103e-01 -1.776358717690373012e+00 -2.835201733601371843e-01 8.085646352972682971e-01 -1.350847829696779190e+00 -3.181436769443440893e-01 1.298808187532201619e-01 -2.000680783469848567e+00 6.944801601340685471e-01 -3.901638759803636725e-01 -4.516759764043819930e-02 -3.054676241484330368e-01
6.689599043956288849e-02 2.245380384448561195e-01 -7.552322424642020637e-01 9.467933117880578120e-02 -6.218418678985565551e-02 7.018746528201745827e-01 -9.501208334968055391e-01 2.976638118393686305e-01 -2.740934807369315163e-01 -2.385114698949428180e-01 6.479349654208849119e-01 9.604921494207328825e-02 2.395249987603332575e-01 -4.022588594622761859e-01 -5.025802194138189183e-01 7.535471414536060175e-01 3.605766492645658128e-02 9.039319936814989020e-01 5.712353586349651069e-01 4.872857551604910936e-02 -5.740861978179812031e-02 4.887564261676026200e-01 1.448400111545770919e-01 -5.667256436935776964e-01 -9.521206375340980355e-01 -1.374614593080585555e-02 3.417911411415597844e-01 8.986674028525452884e-02 2.598356852774277859e-03 -3.953600754652804028e-01 -1.079814990160661514e+00 -4.120079684216562677e-01 -8.540587630389357976e-01 -2.773125018923573992e-01 -5.414558134028527592e-01 8.629100427750932001e-01 3.532042680656296563e-01 2.819780256851975309e-02 4.612173402284918122e-01 -5.323597646459312660e-01 -1.281725778141906413e-01 4.465311989826510342e-01 9.089991237878195518e-01 4.132364415111630662e-01 -6.235819905167612198e-01 5.687568151894135671e-01 1.144624273276148019e-01 -7.884442104139609275e-02 5.142067479001094510e-01 9.397330625126588677e-01 4.906333314738812734e-01 2.372146054613990529e-01 -5.738959361841940859e-02 -3.937361667098754348e-01 3.841870895762877769e-01 -2.924516715148643420e-01 4.650925069101674580e-01 -1.620787436169568163e-01 1.774657675840189408e-01 -1.300448551347826165e-01 -8.503635735784101923e-01 4.315802341114038237e-02 -7.480727486068544652e-02 -7.164666916903855709e-01 4.474290282058736579e-01 -6.520168487965671833e-01 -6.348259388529500225e-01 3.254414961516610694e-01 9.530719457030337183e-02 4.529723266172939744e-01 4.915193336225711640e-01 2.347653725918633638e-01 -8.426132402150589007e-01 -2.376666053968014836e-01 -3.580441126526692774e-01 4.909480345005777235e-01 -7.619567056669981908e-02 4.825461835966635138e-01 -1.942977515265996713e-01 -7.287071996111135763e-02 3.589846221883360999e-01 -5.632289433969490666e-01 -6.708861748825660776e-01 -1.456849270747816005e+00 4.305219680510418145e-01 -1.187715962225778799e-01 -1.080446453096582271e+00 1.551917866944937810e-03 -2.980736456829587433e-01 -4.982638514300097854e-01 -1.965634076305623479e-01 -9.933842721374764873e-01 3.984628827579065335e-01 4.165171691424117695e-01 -4.849820467297708687e-02 -8.125560158417437229e-02 1.750576723650318078e-01 4.794346345532958242e-01 1.958558400411268552e-01 5.250650307624054047e-01 6.094789754674465598e-01 -3.629729174090202681e-01 1.391990108231039303e-01 1.514585449072106994e-02 -1.505437464031368078e-01 3.850160132348415809e-01 -8.543158733548643358e-02 1.205308992703508109e+00 -6.522575040522763379e-01 -6.687742707475285986e-01 -5.008524380907788398e-01 -8.039109385789610096e-01 1.316780198615609965e-01 -2.953220510818910238e-02 -4.255710518075209725e-01 -1.007457462390143776e+00 1.029209509338333772e+00 9.040770038996827351e-02 5.938399833907744840e-01 7.555819124938648601e-01 5.464782063142016311e-01 -5.911794058415454911e-01 1.218830424218192432e+00 2.030852679044068410e-01 -8.254043325493268801e-01 -4.174571644574466833e-01 -9.507579528596764307e-02 -4.369615530237890844e-01 3.837371465234127449e-02 5.992182169793686120e-01 4.173126684598947866e-01 -1.339699012177484050e-01 -8.677329180812816123e-01 8.435064414525947907e-01 -1.121847898829298362e+00 9.930788250821532825e-01 6.494452314166493379e-02 -5.405194176322408728e-01 -5.874775315128055730e-01 -4.876565082360599934e-01 2.223418021261941158e-01 -1.870878640473302712e-01 -5.226440800276218601e-01 -5.208113976956829649e-01 -6.036055474103738661e-01 3.941295454932461917e-01 -6.066543615366550846e-01 2.474470818147248563e-01 5.475724678187936512e-01 1.963942290426813342e-01 1.721960345487466848e-01 -3.073378445864975439e-01 -6.272231868109418018e-01 2.236330101327874686e-01 1.983374688104695971e-01 2.651990064676980688e-02 3.532695740858755040e-01 9.713062093086891058e-02 6.901715054597372667e-01 -4.329634876110995817e-02 -4.971479926588796006e-01 2.424555421412873391e-01 5.162559171180601814e-01 6.408546615408435843e-01 -4.562165445836808275e-01 5.269424502893158696e-02 9.792704584548928004e-01 3.465127149832722409e-02 5.254980045344291861e-01 8.580645417611031112e-02 -1.227984579906513801e-01 -2.712477837602338959e-01 -1.418438532209981062e+00 5.986510316224301631e-01 2.080279566178179218e-01 6.357278818412275267e-01 -4.810369460421627386e-01 -8.533439963606542777e-01 7.344309894643157310e-01 -8.252418388296600682e-02 -8.242622485259721854e-01 3.523306072121042964e-01 4.492591394346533429e-01 5.088701661826957601e-01 -2.319140191882153312e-01 9.421272737745858272e-01 -2.595934873598230719e-01 -5.866311243527687624e-01 -3.831349941635080469e-01 1.137591791914869255e+00 -1.113606484762523635e-01 1.187106096556396428e+00
2.085380634846202286e-01 -1.102185644528975855e-01 2.930764495825708416e-01 -1.401467194476167188e+00 -1.512936343505741243e+00 -5.195906379156539634e-01 2.709423367049108022e-01 3.235224247535701259e-01 2.219324825032358006e-02 6.252825181463128601e-01 -4.283360161450169290e-01 5.910811897008607513e-02 -9.279882632810410037e-01 1.168252711309984843e-01 3.160759957836464101e-02 1.552658344654812006e-01 4.160080907168731690e-01 -4.164271805318368047e-01 3.573447725933435737e-01 -1.327240474708848206e+00 8.751762617274141398e-01 -3.978581592948425283e-01 3.301296456523029055e-01 1.728794337684848303e-01 -5.327325746040276894e-02 1.056433892250747908e+00 -5.463645635545612972e-02 -7.216731755879393084e-01 3.759683012173146710e-01 -1.322575465136640281e-02 1.441869509521185033e-01 -9.266924272887611114e-02 3.451803693261303319e-01 5.948967067892409893e-02 4.489639767919672564e-01 -7.515046571038692669e-01 7.192918198418088438e-02 3.740826541602944033e-01 -2.014681982834055862e+00 2.526007038313237807e+00 -1.039692411139374190e-01 1.744781457129287727e-01 -4.910755612172783557e-01 -4.459167053275817083e-02 6.024968877280899998e-02 -1.663467748613713382e-01 8.539970565631128940e-02 -1.230560825272118131e-01 -3.489285235117373096e-01 -9.693778819392247226e-02 -2.003223604494382692e-01 7.352115763834750073e-01 -7.451026102372475535e-01 -4.251319073879149535e-01 1.817142584444228492e-01 1.588802912868052530e-01 2.552539794475803744e-02 7.205537172723863737e-01 3.693029733871820014e-02 1.461965251814163202e-01 -1.914284004008366402e-01 2.368741914031095575e-01 1.459599836907620185e-01 -3.651017908249089283e-02 -1.280291102579025064e-01 5.807196439689387146e-01 1.298309393519300470e-01 -1.169395309553971529e+00 -1.132714923442336152e-01 -1.859385809351295216e-01 -4.006992282858533594e-01 -8.337856146279669645e-01 4.758397181159823019e-01 -7.701785793497625265e-01 3.880797397594465958e-01 2.245601499320259466e-03 3.488344211361074088e-01 -1.691389928923557884e-01 6.177281028436992782e-02 4.625208895302497514e-02 -8.226378255499352532e-01 -7.361520859191416077e-01 1.793411302284020348e-01 9.415888847730313760e-01 9.584465797472049298e-01 -8.913089056106691943e-02 2.509849197619021810e-01 -1.904308123750337589e-01 5.615109322659140867e-01 -8.616939109807510988e-01 -3.688232055376592933e-01 8.322830619416803355e-01 -3.874909571359700516e-02 4.718046288177990544e-01 -4.470958132364302173e-01 2.318409998584916032e-01 -7.681787753124699747e-02 -1.802281608183556316e-01 3.733072094474538249e-01 1.915744390602840963e-01 -1.036582404757901976e+00 -5.482934051446574086e-01 -2.541885142983723589e-01 -6.515149694598745267e-01 5.674686925066112497e-01 -1.117864231594300900e-01 -7.043218288071828592e-01 -1.431759931898873017e-01 1.314709946351752645e+00 4.063489703680681076e-01 1.460311518262110475e+00 1.767644220642289543e+00 -3.551135692717152792e-01 -1.249921746282172341e+00 -2.328324172367122191e-01 -3.074941676585821182e-01 1.344657641730482744e+00 2.643022056857391444e-01 -3.670954242146192148e-01 2.518092154347692513e-01 2.140947316324688376e-01 1.750956218476628523e+00 -6.679366053382332913e-01 -2.027700506570783712e-01 -5.003526156366135957e-01 1.136447136788355294e+00 7.570602968104541697e-01 5.889919112736250462e-01 -1.747506826478130992e-01 -1.331848405790920342e+00 -5.200220690257821854e-01 -4.426673451548762683e-01 -1.200237234611500892e-01 -1.838657575681132694e-01 -4.636902272470929676e-01 -2.278260680090772095e+00 -1.737232698253624585e-01 -4.796115264506546350e-01 6.301583581775825893e-01 -1.897967783359538474e-01 -4.225690317587387779e-01 1.129012534892964298e-01 1.283156854160365068e+00 2.309358172802334241e+00 -3.139419801614391770e-02 1.136684706720273302e-01 -6.427125406837435051e-01 -1.114264172950668819e+00 -7.381354348962146927e-01 2.529615838707611197e-01 5.005613892131475229e-01 1.493193870786848898e-01 8.333032756752849490e-01 -5.041614478567796320e-01 8.531383081079113584e-01 -7.564997963217298116e-01 -4.017436103891553478e-01 1.786351053008621362e-02 -6.701431260695324132e-01 -2.556360453770503138e-01 -1.564290015347421237e-01 -1.188934665123280443e-01 -4.512491732799405603e-02 5.246048032968932961e-01 3.214866252720475770e-01 7.700741925614954519e-01 1.679963946483691295e-01 -3.409884427352306568e-01 -4.811922406729836066e-01 6.269660764950133469e-01 4.445643050657974160e-02 -5.525799483318188932e-01 1.426491741525496293e+00 -7.112689495435732256e-01 6.334802234593799319e-01 -1.541618027688838599e-01 1.334091950407713112e+00 -2.425722702247188611e-01 -6.195433016741550003e-02 -5.863863553320047828e-02 -3.972030422098565272e-01 -7.476048078318646706e-01 -2.941773959553770079e-01 3.843392988833175816e-01 -2.923894508184096130e-01 4.423161324633178570e-01 -1.415402573599496283e-01 6.291186040599673346e-01 7.204400745127458316e-01 -7.034137151713231173e-01 3.212089461308446636e-01 -5.937834191212701951e-01