1.816940000000000000e+00 1.337150000000000061e+00 2.119720000000000049e+00 4.785230000000000317e+00 4.285190000000000055e+00 2.113389999999999880e+00 1.500140000000000029e+00 4.126970000000000027e+00 4.922380000000000422e+00 4.928799999999999848e+00 1.332240000000000091e+00 4.633140000000000036e+00 8.027499999999999858e+00 1.592119999999999980e+00 1.973440000000000083e+00 1.077599999999999980e+01 4.077759999999999607e+00 1.551209999999999978e+00 8.073470000000000368e+00 4.614049999999999763e+00 4.769580000000000375e+00 1.058380000000000010e+01 1.167759999999999909e+00 4.786240000000000272e+00 1.713470000000000049e+00 6.960309999999999775e+00 1.603969999999999896e+00 4.731429999999999580e+00 1.079780000000000051e+01 1.575749999999999984e+00 1.997749999999999915e+00 1.017939999999999934e+01 4.546949999999999825e+00 4.226910000000000167e+00 7.038339999999999819e+00 4.497770000000000046e+00 7.705330000000000013e+00 7.585519999999999818e+00 1.530459999999999932e+00 1.040479999999999983e+01 1.073010000000000019e+01 1.407299999999999995e+00 8.160729999999999151e+00 1.035989999999999966e+01 5.421549999999999869e+00 1.041590000000000060e+01 8.122899999999999565e+00 4.147569999999999979e+00 1.771700000000000053e+00 8.952940000000000342e-01 7.888250000000000206e+00 4.127699999999999925e+00 4.722629999999999661e+00 7.508510000000000240e+00 1.932360000000000078e+00 4.794909999999999783e+00 1.096310000000000073e+01 4.421870000000000189e+00 1.360479999999999912e+00 1.111710000000000065e+01 7.775559999999999583e+00 1.236280000000000046e+00 8.012620000000000076e+00 9.901880000000000237e+00 4.199600000000000222e+00 7.844699999999999562e+00 7.498940000000000161e+00 4.824690000000000367e+00 1.086860000000000070e+01 1.072840000000000060e+01 2.203030000000000044e+00 1.019500000000000028e+01 1.345390000000000086e+00 7.086109999999999687e+00 7.152110000000000412e+00 3.781369999999999898e+00 1.150500000000000078e+01 8.283709999999999241e+00 1.799020000000000064e+00 1.142740000000000045e+01 1.051929999999999943e+01 3.962530000000000108e+00 6.780300000000000438e+00 1.086239999999999917e+01 6.724319999999999631e+00 8.421200000000000685e+00 7.954310000000000436e+00 1.034360000000000035e+01 1.078969999999999985e+01 7.891320000000000334e+00 7.828809999999999825e+00 1.107429999999999914e+01 1.111509999999999998e+01 1.053079999999999927e+01 7.602829999999999977e+00 1.028410000000000046e+01 5.152790000000000425e+00 1.606500000000000039e+00 1.509220000000000006e+00 1.912940000000000085e+00 4.251540000000000319e+00 1.510739999999999972e+00 4.898049999999999571e+00 4.444259999999999877e+00 4.675259999999999749e+00 1.579150000000000054e+00 1.484029999999999960e+00 4.566089999999999982e+00 1.054850000000000065e+01 1.503370000000000095e+00 1.638149999999999995e+00 7.467279999999999696e+00 4.532770000000000188e+00 2.150110000000000188e+00 1.064739999999999931e+01 4.246559999999999668e+00 4.520080000000000098e+00 7.567820000000000213e+00 1.467780000000000085e+00 4.852599999999999802e+00 4.782099999999999795e+00 7.377950000000000230e+00 1.329539999999999944e+00 1.646230000000000082e+00 1.041489999999999938e+01 1.522759999999999891e+00 4.584789999999999921e+00 1.083319999999999972e+01 4.484309999999999796e+00 1.113909999999999956e+00 7.072020000000000195e+00 4.452820000000000000e+00 1.040080000000000027e+01 7.476329999999999920e+00 1.355359999999999898e+00 7.519300000000000317e+00 1.074629999999999974e+01 1.666099999999999914e+00 1.085670000000000002e+01 1.091060000000000052e+01 4.173040000000000305e+00 7.184680000000000177e+00 8.095560000000000755e+00 4.568959999999999688e+00 4.928350000000000009e+00 1.597480000000000011e+00 7.672649999999999970e+00 1.757589999999999986e+00 4.308259999999999756e+00 7.636599999999999611e+00 4.664909999999999890e+00 4.150439999999999685e+00 1.052950000000000053e+01 1.525390000000000024e+00 2.223660000000000192e+00 1.065259999999999962e+01 1.073719999999999963e+01 1.692709999999999937e+00 7.422299999999999898e+00 7.418309999999999960e+00 4.326749999999999652e+00 8.005160000000000053e+00 1.057890000000000086e+01 4.843090000000000117e+00 1.106080000000000041e+01 8.140990000000000393e+00 1.872889999999999944e+00 1.061969999999999992e+01 4.320289999999999964e+00 7.567230000000000345e+00 7.685660000000000380e+00 1.386560000000000015e+00 1.014400000000000013e+01 7.175150000000000361e+00 4.818780000000000285e+00 1.038039999999999985e+01 1.070889999999999986e+01 1.444779999999999953e+00 8.255699999999999150e+00 1.044170000000000087e+01 1.045930000000000071e+01 7.699600000000000222e+00 7.659790000000000099e+00 6.083400000000000141e+00 1.084970000000000034e+01 7.807859999999999800e+00 1.065850000000000009e+01 1.067300000000000004e+01 1.063879999999999981e+01 7.239169999999999661e+00 7.444849999999999746e+00 1.060280000000000022e+01
4.818910000000000138e-01 1.332600000000000007e+00 2.049300000000000122e+00 4.011230000000000295e+00 5.221330000000000027e+00 1.729710000000000081e+00 2.213849999999999874e+00 4.613640000000000185e+00 4.804809999999999803e+00 4.259660000000000224e+00 1.732269999999999976e+00 4.784250000000000114e+00 6.709749999999999659e+00 1.506250000000000089e+00 1.300780000000000047e+00 1.042859999999999943e+01 4.895100000000000229e+00 1.015300000000000091e+00 8.406150000000000233e+00 5.422320000000000029e+00 4.700459999999999638e+00 1.018849999999999945e+01 2.133280000000000065e+00 4.911579999999999835e+00 7.319970000000000088e-01 8.076259999999999550e+00 2.078149999999999942e+00 4.846029999999999838e+00 1.098070000000000057e+01 1.504890000000000061e+00 1.662970000000000059e+00 1.103780000000000072e+01 4.783210000000000406e+00 5.107350000000000279e+00 7.514719999999999622e+00 4.893670000000000186e+00 6.989359999999999573e+00 7.527879999999999683e+00 1.576600000000000001e+00 1.022499999999999964e+01 1.125459999999999994e+01 1.452039999999999997e+00 7.204119999999999635e+00 1.062449999999999939e+01 4.853670000000000151e+00 1.109999999999999964e+01 7.933150000000000368e+00 4.869180000000000064e+00 1.342389999999999972e+00 1.653639999999999999e+00 7.812529999999999752e+00 4.606849999999999667e+00 3.925300000000000011e+00 7.414049999999999585e+00 1.339609999999999967e+00 3.941149999999999931e+00 1.147000000000000064e+01 4.087180000000000035e+00 1.540019999999999945e+00 1.000760000000000005e+01 8.081820000000000448e+00 1.317660000000000053e+00 8.269399999999999196e+00 1.133539999999999992e+01 4.890780000000000349e+00 7.198739999999999917e+00 6.842640000000000278e+00 4.713989999999999903e+00 9.909840000000000870e+00 1.020359999999999978e+01 2.200279999999999792e+00 1.021490000000000009e+01 1.543220000000000036e+00 7.660770000000000302e+00 7.831669999999999909e+00 4.824690000000000367e+00 1.050530000000000008e+01 7.772619999999999862e+00 2.040299999999999780e+00 1.059999999999999964e+01 1.096189999999999998e+01 5.288420000000000343e+00 7.431370000000000253e+00 1.099300000000000033e+01 7.716910000000000380e+00 6.945789999999999687e+00 7.695929999999999715e+00 1.110769999999999946e+01 1.068099999999999916e+01 7.349510000000000431e+00 8.157859999999999445e+00 9.601639999999999731e+00 1.134750000000000014e+01 1.159079999999999977e+01 8.112310000000000798e+00 1.148390000000000022e+01 4.013010000000000410e+00 1.328670000000000018e+00 9.294109999999999872e-01 1.038910000000000000e+00 4.521359999999999602e+00 1.748229999999999951e+00 5.049809999999999910e+00 4.402709999999999901e+00 4.112280000000000157e+00 1.146419999999999995e+00 1.517269999999999897e+00 4.866570000000000285e+00 1.043950000000000067e+01 1.763810000000000100e+00 1.402199999999999891e+00 7.116010000000000169e+00 4.558830000000000382e+00 1.553309999999999969e+00 1.177779999999999916e+01 4.319619999999999571e+00 4.544249999999999901e+00 7.342609999999999637e+00 1.373070000000000013e+00 4.539139999999999731e+00 3.890060000000000073e+00 7.738760000000000083e+00 1.508000000000000007e+00 1.358060000000000045e+00 1.089830000000000076e+01 1.888239999999999919e+00 4.308180000000000121e+00 1.011469999999999914e+01 5.279829999999999579e+00 1.476010000000000044e+00 7.642269999999999897e+00 4.551660000000000039e+00 1.048760000000000048e+01 7.536380000000000301e+00 2.175440000000000040e+00 7.623700000000000365e+00 1.082629999999999981e+01 1.466089999999999893e+00 1.078170000000000073e+01 1.145560000000000045e+01 4.539719999999999978e+00 8.107459999999999667e+00 8.148099999999999454e+00 4.706579999999999764e+00 4.379819999999999602e+00 1.115779999999999994e+00 7.249859999999999971e+00 1.940430000000000099e+00 4.700040000000000440e+00 7.414130000000000109e+00 4.139009999999999856e+00 4.391440000000000232e+00 1.019870000000000054e+01 7.822789999999999466e-01 1.037260000000000071e+00 1.084340000000000082e+01 1.093960000000000043e+01 1.139729999999999910e+00 7.291990000000000194e+00 7.465390000000000192e+00 3.922559999999999825e+00 7.282939999999999969e+00 1.124239999999999995e+01 4.635180000000000078e+00 1.061149999999999949e+01 6.876109999999999722e+00 1.767079999999999984e+00 1.070449999999999946e+01 4.910389999999999588e+00 7.702180000000000248e+00 7.529860000000000220e+00 1.652879999999999905e+00 1.056129999999999924e+01 7.569810000000000372e+00 5.151209999999999845e+00 1.028759999999999941e+01 1.040939999999999976e+01 1.561979999999999924e+00 7.335980000000000167e+00 1.070930000000000071e+01 1.067970000000000041e+01 7.266009999999999636e+00 7.827939999999999898e+00 7.342859999999999943e+00 1.085479999999999912e+01 7.701780000000000292e+00 1.060769999999999946e+01 1.073620000000000019e+01 1.086309999999999931e+01 8.292249999999999233e+00 6.933049999999999713e+00 1.070749999999999957e+01
1.361760000000000081e+00 2.142939999999999845e+00 1.709519999999999929e+00 4.009660000000000224e+00 4.287650000000000183e+00 1.283120000000000038e+00 1.626519999999999966e+00 4.619839999999999947e+00 4.636029999999999873e+00 4.590139999999999887e+00 1.366170000000000107e+00 4.353439999999999976e+00 6.730979999999999741e+00 1.793719999999999981e+00 1.372649999999999926e+00 1.048010000000000019e+01 4.697350000000000136e+00 1.585409999999999986e+00 7.498129999999999740e+00 4.476609999999999978e+00 4.431090000000000195e+00 1.017430000000000057e+01 1.426569999999999894e+00 4.219649999999999679e+00 1.617159999999999931e+00 7.481309999999999683e+00 2.204019999999999868e+00 4.523819999999999730e+00 1.025859999999999950e+01 2.067489999999999828e+00 1.673680000000000057e+00 1.070770000000000088e+01 4.699049999999999727e+00 5.514350000000000307e+00 7.566729999999999734e+00 4.399329999999999963e+00 7.836920000000000108e+00 8.072010000000000574e+00 1.610540000000000083e+00 1.050200000000000067e+01 1.037720000000000020e+01 1.229430000000000023e+00 6.645690000000000097e+00 9.703590000000000160e+00 4.241769999999999818e+00 1.080170000000000030e+01 8.033780000000000143e+00 5.231250000000000178e+00 1.570380000000000109e+00 1.928199999999999914e+00 7.569090000000000096e+00 4.628230000000000288e+00 4.112190000000000012e+00 7.678079999999999572e+00 1.244439999999999991e+00 3.654809999999999892e+00 1.032310000000000016e+01 4.466190000000000104e+00 1.516969999999999930e+00 1.038400000000000034e+01 7.601689999999999614e+00 1.347329999999999917e+00 7.391420000000000101e+00 1.058580000000000076e+01 4.757179999999999964e+00 7.558659999999999712e+00 7.390270000000000117e+00 4.379690000000000083e+00 1.025880000000000081e+01 1.016440000000000055e+01 1.584349999999999925e+00 1.026449999999999996e+01 1.843199999999999950e+00 7.493470000000000297e+00 8.214990000000000236e+00 4.927539999999999587e+00 1.004920000000000080e+01 7.634019999999999584e+00 2.123670000000000169e+00 9.998450000000000060e+00 1.149210000000000065e+01 4.957019999999999982e+00 7.787480000000000402e+00 1.072259999999999991e+01 7.694460000000000299e+00 7.728589999999999627e+00 6.784950000000000259e+00 1.063560000000000016e+01 1.075580000000000069e+01 7.923530000000000406e+00 7.284849999999999604e+00 9.811189999999999856e+00 1.021700000000000053e+01 1.090409999999999968e+01 7.374649999999999928e+00 1.108339999999999925e+01 3.867410000000000014e+00 1.571139999999999981e+00 1.722580000000000000e+00 1.249149999999999983e+00 4.955400000000000027e+00 1.585360000000000102e+00 4.836719999999999686e+00 4.916920000000000179e+00 4.984219999999999651e+00 1.453770000000000007e+00 2.001809999999999867e+00 4.671070000000000277e+00 9.988469999999999516e+00 1.338140000000000107e+00 1.013730000000000020e+00 7.353810000000000180e+00 5.004830000000000112e+00 1.765320000000000000e+00 1.055470000000000041e+01 4.701859999999999928e+00 4.279819999999999958e+00 7.646329999999999849e+00 1.703379999999999894e+00 4.552229999999999777e+00 4.276720000000000077e+00 7.380329999999999835e+00 1.844049999999999967e+00 1.880710000000000104e+00 1.063260000000000005e+01 1.763020000000000032e+00 4.098300000000000054e+00 1.090440000000000076e+01 5.032779999999999809e+00 1.631410000000000027e+00 8.178409999999999513e+00 4.741850000000000342e+00 1.058520000000000039e+01 7.808329999999999771e+00 1.992269999999999985e+00 7.660890000000000200e+00 1.094009999999999927e+01 1.743060000000000054e+00 1.064100000000000001e+01 1.090450000000000053e+01 4.981550000000000367e+00 8.454750000000000654e+00 7.311939999999999884e+00 4.054590000000000138e+00 4.719769999999999577e+00 1.587779999999999969e+00 7.605769999999999698e+00 1.907200000000000006e+00 5.088599999999999568e+00 7.278400000000000425e+00 4.297500000000000320e+00 4.452130000000000365e+00 1.055920000000000059e+01 1.450960000000000027e+00 8.379849999999999799e-01 1.108539999999999992e+01 1.033919999999999995e+01 1.654709999999999903e+00 7.363109999999999822e+00 8.124109999999999943e+00 4.071900000000000297e+00 7.446019999999999861e+00 1.056930000000000014e+01 4.810340000000000060e+00 1.075399999999999956e+01 7.538499999999999979e+00 1.398749999999999938e+00 1.062030000000000030e+01 4.894770000000000287e+00 7.519639999999999880e+00 7.525760000000000005e+00 1.963740000000000041e+00 1.022400000000000020e+01 7.902280000000000193e+00 4.519999999999999574e+00 1.045379999999999932e+01 1.075440000000000040e+01 1.856200000000000072e+00 7.445359999999999978e+00 1.083699999999999974e+01 1.060149999999999970e+01 7.810139999999999638e+00 7.986069999999999780e+00 8.125980000000000203e+00 1.034089999999999954e+01 7.789769999999999861e+00 1.070950000000000024e+01 1.053739999999999988e+01 1.087790000000000035e+01 7.659299999999999997e+00 6.930220000000000269e+00 1.112270000000000003e+01
3.529600000000000098e-02 2.881980000000000097e-01 4.580099999999999727e-01 4.335849999999999760e+00 4.963250000000000384e+00 1.832850000000000090e+00 1.728069999999999995e+00 4.224409999999999776e+00 4.499159999999999826e+00 6.034830000000000361e+00 1.897909999999999986e+00 3.219050000000000189e+00 7.201500000000000234e+00 7.380820000000000158e-01 1.315620000000000012e+00 9.966910000000000380e+00 5.207819999999999894e+00 1.597010000000000041e+00 7.256750000000000256e+00 5.520749999999999602e+00 4.302190000000000403e+00 1.094469999999999921e+01 2.723580000000000112e+00 4.118400000000000283e+00 1.223610000000000086e+00 7.765109999999999957e+00 1.614559999999999995e+00 4.187590000000000146e+00 1.177500000000000036e+01 1.171939999999999982e+00 1.057590000000000030e+00 1.121080000000000076e+01 4.490680000000000227e+00 4.848220000000000418e+00 7.667749999999999844e+00 5.099070000000000213e+00 7.491889999999999716e+00 7.398360000000000269e+00 1.831180000000000030e+00 1.051720000000000077e+01 1.061519999999999975e+01 1.392770000000000064e+00 7.482230000000000381e+00 1.100999999999999979e+01 4.523990000000000400e+00 1.249740000000000073e+01 8.084490000000000620e+00 5.264050000000000118e+00 1.356400000000000050e+00 1.573420000000000041e+00 7.542570000000000441e+00 4.153100000000000236e+00 5.089260000000000339e+00 8.071009999999999351e+00 1.635070000000000023e+00 4.633659999999999890e+00 1.075019999999999953e+01 3.845509999999999984e+00 6.170350000000000001e-01 9.740809999999999746e+00 7.795219999999999594e+00 9.160260000000000069e-01 7.693080000000000140e+00 1.063310000000000066e+01 4.364460000000000228e+00 7.138239999999999696e+00 8.332079999999999487e+00 4.440269999999999939e+00 1.007280000000000086e+01 1.002999999999999936e+01 1.543190000000000062e+00 9.701219999999999288e+00 1.491880000000000095e+00 7.570689999999999920e+00 8.066449999999999676e+00 4.936420000000000030e+00 1.070170000000000066e+01 7.822400000000000020e+00 1.200520000000000032e+00 1.061849999999999916e+01 1.031119999999999948e+01 5.119290000000000340e+00 7.574729999999999741e+00 1.065039999999999942e+01 7.584649999999999892e+00 6.987499999999999822e+00 8.382720000000000837e+00 1.119190000000000040e+01 1.024660000000000082e+01 7.144529999999999603e+00 7.075409999999999755e+00 1.070340000000000025e+01 1.046770000000000067e+01 1.111260000000000048e+01 6.862140000000000128e+00 1.126350000000000051e+01 2.672899999999999832e+00 2.268209999999999837e+00 1.218809999999999949e+00 1.595609999999999973e+00 4.694619999999999571e+00 1.625329999999999941e+00 4.693299999999999805e+00 4.390340000000000131e+00 4.621340000000000003e+00 1.149210000000000065e+00 1.898649999999999949e+00 5.074430000000000440e+00 9.807180000000000675e+00 2.011730000000000018e+00 1.680530000000000079e+00 6.863629999999999676e+00 4.341050000000000075e+00 1.673789999999999889e+00 1.153519999999999968e+01 5.480120000000000324e+00 4.751310000000000144e+00 7.890150000000000219e+00 1.915669999999999984e+00 4.911920000000000286e+00 4.761079999999999757e+00 7.669200000000000017e+00 1.828619999999999912e+00 1.702790000000000026e+00 1.044260000000000055e+01 1.790319999999999911e+00 4.793689999999999785e+00 1.018629999999999924e+01 5.007139999999999702e+00 2.318029999999999813e+00 7.370330000000000048e+00 4.222019999999999662e+00 1.069570000000000043e+01 8.062459999999999738e+00 2.437450000000000117e+00 7.612820000000000142e+00 9.913619999999999877e+00 1.766620000000000079e+00 1.077020000000000088e+01 1.123230000000000040e+01 4.218119999999999870e+00 8.272339999999999804e+00 8.117269999999999541e+00 5.130580000000000140e+00 4.637850000000000250e+00 1.580580000000000096e+00 6.973300000000000054e+00 1.092079999999999940e+00 4.294389999999999930e+00 7.709039999999999893e+00 4.912370000000000125e+00 4.607479999999999798e+00 1.063780000000000037e+01 8.296670000000000433e-01 1.579749999999999988e+00 1.033130000000000059e+01 1.083779999999999966e+01 1.679890000000000105e+00 6.735710000000000086e+00 6.770529999999999937e+00 4.115000000000000213e+00 7.689309999999999867e+00 1.119769999999999932e+01 4.199569999999999581e+00 1.127599999999999980e+01 6.759109999999999729e+00 1.720709999999999962e+00 1.050859999999999950e+01 4.741399999999999615e+00 7.492219999999999658e+00 8.049609999999999488e+00 2.012109999999999843e+00 1.013199999999999967e+01 7.062199999999999811e+00 3.881639999999999979e+00 1.022400000000000020e+01 1.107269999999999932e+01 1.382309999999999928e+00 7.415169999999999817e+00 1.099890000000000079e+01 1.053819999999999979e+01 6.838239999999999874e+00 8.782510000000000261e+00 8.167040000000000077e+00 1.006889999999999930e+01 7.409570000000000434e+00 1.018500000000000050e+01 1.026319999999999943e+01 1.091709999999999958e+01 8.058749999999999858e+00 7.206489999999999618e+00 1.106719999999999970e+01
1.400670000000000082e+00 7.829120000000000523e-01 1.238099999999999978e+00 4.298980000000000246e+00 4.198859999999999815e+00 1.964979999999999949e+00 1.754839999999999955e+00 3.966359999999999886e+00 4.003169999999999895e+00 5.223119999999999763e+00 2.445190000000000197e+00 4.908450000000000202e+00 7.001299999999999635e+00 1.303320000000000034e+00 1.326500000000000012e+00 9.032030000000000669e+00 2.995480000000000143e+00 1.246439999999999948e+01 7.689309999999999867e+00 3.951950000000000074e+00 4.741240000000000343e+00 1.138560000000000016e+01 1.763579999999999925e+00 4.557039999999999758e+00 1.462409999999999988e+00 6.695610000000000284e+00 1.464269999999999960e+00 4.957600000000000229e+00 1.102779999999999916e+01 2.039680000000000160e+00 1.099020000000000108e+00 1.047070000000000078e+01 3.560939999999999994e+00 4.825890000000000235e+00 8.163999999999999702e+00 4.186429999999999652e+00 7.111810000000000187e+00 7.183900000000000396e+00 2.460980000000000167e+00 1.051900000000000013e+01 1.048099999999999987e+01 1.726259999999999906e+00 7.554199999999999804e+00 1.035289999999999999e+01 4.634769999999999612e+00 1.092680000000000007e+01 7.140380000000000393e+00 4.755779999999999674e+00 1.614729999999999999e+00 1.586440000000000072e+00 7.637900000000000134e+00 4.067829999999999835e+00 4.698319999999999830e+00 7.968530000000000335e+00 1.830570000000000030e+00 4.725939999999999586e+00 1.078129999999999988e+01 4.766750000000000043e+00 2.173909999999999787e+00 1.093050000000000033e+01 7.326660000000000394e+00 2.510590000000000099e+00 6.625189999999999912e+00 9.791740000000000776e+00 3.755850000000000133e+00 7.463709999999999845e+00 8.432079999999999131e+00 5.444980000000000153e+00 1.035899999999999999e+01 1.079049999999999976e+01 1.297930000000000028e+00 1.069250000000000078e+01 1.410390000000000033e+00 7.750759999999999650e+00 8.120599999999999596e+00 4.350349999999999717e+00 1.098690000000000033e+01 8.217879999999999185e+00 1.377410000000000023e+00 1.060919999999999952e+01 1.044839999999999947e+01 4.162340000000000373e+00 8.351520000000000721e+00 1.147220000000000084e+01 7.777169999999999916e+00 8.572609999999999175e+00 9.244899999999999451e+00 1.072259999999999991e+01 1.004480000000000040e+01 8.316720000000000113e+00 7.971750000000000114e+00 1.125140000000000029e+01 1.105150000000000077e+01 9.879509999999999792e+00 6.850520000000000387e+00 1.148719999999999963e+01 4.393250000000000099e+00 1.922930000000000028e+00 1.028780000000000028e+00 1.446159999999999890e+00 4.122480000000000366e+00 1.232010000000000050e+00 4.804439999999999600e+00 5.049400000000000333e+00 5.283549999999999969e+00 2.053150000000000031e+00 1.386570000000000080e+00 3.986909999999999954e+00 1.122129999999999939e+01 1.790159999999999973e+00 1.196690000000000031e+00 7.174570000000000114e+00 4.420130000000000337e+00 1.941959999999999908e+00 1.059740000000000038e+01 4.614349999999999952e+00 4.914209999999999745e+00 8.327479999999999549e+00 1.457829999999999959e+00 3.824469999999999814e+00 4.265080000000000204e+00 7.563360000000000305e+00 1.677750000000000075e+00 2.524430000000000174e+00 1.027749999999999986e+01 5.552300000000000013e-01 4.434429999999999872e+00 1.055739999999999945e+01 5.172369999999999912e+00 1.422180000000000000e+00 7.734079999999999622e+00 4.034769999999999968e+00 1.042169999999999952e+01 7.163719999999999644e+00 1.666209999999999969e+00 7.391300000000000203e+00 1.001849999999999952e+01 1.527260000000000062e+00 1.083350000000000080e+01 1.046870000000000012e+01 4.433150000000000368e+00 8.024369999999999337e+00 7.745529999999999582e+00 4.794830000000000148e+00 4.611909999999999954e+00 1.742839999999999945e+00 7.471820000000000128e+00 1.154870000000000063e+00 4.979800000000000004e+00 7.634479999999999933e+00 4.707600000000000229e+00 5.100620000000000154e+00 1.100619999999999976e+01 1.156120000000000037e+00 1.251069999999999904e+00 1.042600000000000016e+01 1.102500000000000036e+01 1.188059999999999894e+00 7.088239999999999874e+00 7.359130000000000393e+00 5.704920000000000435e+00 7.989609999999999879e+00 1.116499999999999915e+01 3.755079999999999973e+00 9.822860000000000369e+00 6.871430000000000149e+00 1.141880000000000006e+00 9.820700000000000429e+00 4.205940000000000012e+00 7.887120000000000353e+00 8.714280000000000470e+00 1.279670000000000085e+00 1.027430000000000021e+01 7.564779999999999838e+00 4.813649999999999984e+00 1.110670000000000002e+01 1.110859999999999914e+01 5.385990000000000499e-01 7.563430000000000319e+00 1.130000000000000071e+01 1.080920000000000059e+01 7.596799999999999997e+00 7.874179999999999957e+00 7.497790000000000177e+00 1.084730000000000061e+01 7.697680000000000078e+00 1.063439999999999941e+01 1.038679999999999914e+01 1.100699999999999967e+01 7.255460000000000242e+00 7.563629999999999853e+00 1.160210000000000008e+01
9.770680000000000476e-01 1.203529999999999989e+00 1.375850000000000017e+00 3.080610000000000070e+00 5.213899999999999757e+00 1.699719999999999898e+00 1.800869999999999971e+00 5.196320000000000050e+00 3.924949999999999939e+00 4.010539999999999772e+00 2.198989999999999778e+00 4.240660000000000096e+00 7.128490000000000215e+00 1.266939999999999955e+00 1.338529999999999998e+00 9.359109999999999374e+00 5.016060000000000407e+00 1.332719999999999905e+00 8.479039999999999466e+00 5.786520000000000330e+00 3.537669999999999870e+00 1.056259999999999977e+01 2.386699999999999822e+00 3.342290000000000205e+00 9.734920000000000240e-01 7.488789999999999836e+00 2.013500000000000068e+00 5.046960000000000335e+00 1.086120000000000019e+01 1.876579999999999915e+00 1.948139999999999983e+00 1.114179999999999993e+01 4.309619999999999784e+00 5.263760000000000439e+00 7.504419999999999646e+00 4.757979999999999876e+00 8.072969999999999757e+00 8.042160000000000863e+00 8.903140000000000498e-01 1.094159999999999933e+01 1.064729999999999954e+01 1.199019999999999975e+00 8.499320000000000874e+00 1.130690000000000062e+01 4.611150000000000304e+00 1.129679999999999929e+01 7.875079999999999636e+00 5.371430000000000149e+00 1.328310000000000102e+00 1.540650000000000075e+00 8.363469999999999516e+00 4.091000000000000192e+00 5.067409999999999748e+00 7.737630000000000230e+00 8.339330000000000354e-01 4.312999999999999723e+00 1.034619999999999962e+01 4.634420000000000428e+00 1.129180000000000073e+00 1.105269999999999975e+01 7.299400000000000333e+00 1.188560000000000061e+00 7.794039999999999857e+00 1.083890000000000065e+01 4.527569999999999872e+00 7.634070000000000356e+00 6.880659999999999776e+00 4.267470000000000319e+00 9.432919999999999305e+00 9.101079999999999615e+00 1.181310000000000038e+01 1.004599999999999937e+01 1.894640000000000102e+00 7.660199999999999676e+00 8.276479999999999393e+00 4.818690000000000140e+00 1.065700000000000003e+01 7.614639999999999631e+00 1.699619999999999909e+00 1.060149999999999970e+01 1.059849999999999959e+01 4.965220000000000411e+00 6.939280000000000115e+00 1.144469999999999921e+01 7.722360000000000113e+00 7.384339999999999904e+00 7.460180000000000256e+00 1.131830000000000069e+01 1.120289999999999964e+01 8.013980000000000103e+00 7.184610000000000163e+00 9.389070000000000249e+00 1.146560000000000024e+01 1.153800000000000026e+01 6.534740000000000215e+00 1.177490000000000059e+01 3.653820000000000068e+00 1.458139999999999992e+00 1.208790000000000031e+00 1.277719999999999967e-01 4.476009999999999600e+00 1.747200000000000086e+00 5.072280000000000122e+00 4.767059999999999853e+00 4.938539999999999708e+00 1.127699999999999925e+00 1.747039999999999926e+00 4.016060000000000407e+00 9.841680000000000206e+00 1.683599999999999985e+00 8.153219999999999912e-01 6.261400000000000077e+00 4.099149999999999849e+00 1.682010000000000005e+00 1.114439999999999920e+01 4.913050000000000139e+00 4.737070000000000114e+00 7.741769999999999818e+00 1.747900000000000009e+00 4.475539999999999630e+00 4.897870000000000168e+00 7.841470000000000162e+00 2.059039999999999981e+00 1.345129999999999937e+00 1.056869999999999976e+01 1.396600000000000064e+00 4.266259999999999941e+00 1.070780000000000065e+01 4.500770000000000159e+00 1.727910000000000057e+00 7.641370000000000218e+00 4.457349999999999923e+00 1.083810000000000073e+01 8.173470000000000013e+00 2.438149999999999817e+00 8.164749999999999730e+00 1.057329999999999970e+01 1.572850000000000081e+00 1.108730000000000082e+01 1.118229999999999968e+01 5.013600000000000279e+00 8.093439999999999301e+00 7.893989999999999618e+00 5.022789999999999644e+00 4.389739999999999753e+00 1.613939999999999930e+00 7.239539999999999864e+00 1.276070000000000038e+00 4.249050000000000438e+00 7.375799999999999912e+00 4.128359999999999808e+00 4.276250000000000107e+00 1.144640000000000057e+01 5.457349999999999701e-01 1.550550000000000095e+00 1.076660000000000039e+01 1.077549999999999919e+01 1.564850000000000074e+00 7.546669999999999767e+00 7.876129999999999853e+00 4.106760000000000410e+00 6.572519999999999918e+00 1.049269999999999925e+01 4.187070000000000292e+00 1.040470000000000006e+01 7.596599999999999575e+00 2.059800000000000075e+00 1.125900000000000034e+01 4.473150000000000404e+00 7.636359999999999815e+00 8.047340000000000160e+00 1.924760000000000026e+00 1.037480000000000047e+01 7.410610000000000142e+00 4.466940000000000133e+00 1.047070000000000078e+01 1.085670000000000002e+01 1.727659999999999973e+00 7.136409999999999698e+00 1.086020000000000074e+01 1.097799999999999976e+01 8.147180000000000533e+00 8.063560000000000727e+00 7.946729999999999627e+00 1.051270000000000060e+01 7.695689999999999920e+00 1.116729999999999912e+01 9.617070000000000007e+00 1.107629999999999981e+01 8.651550000000000296e+00 6.384509999999999685e+00 1.073680000000000057e+01