-1.051491492131776795e+04
-1.051317801738011076e+04
-1.051336747886369631e+04
-1.050898226414157580e+04
-1.051038583054059563e+04
-1.050994781536891787e+04
-1.051110299245230090e+04
-1.051282182209104030e+04
-1.051044665119337878e+04
-1.051337038779879367e+04
-1.051265135195072435e+04
-1.050616303603319648e+04
-1.050953408174871220e+04
-1.051095129595210528e+04
-1.050627750642523461e+04
-1.051426217576501222e+04
-1.051112241680934494e+04
-1.051293317482494604e+04
-1.051289236430009623e+04
-1.051004851627576136e+04
-1.051053267123036312e+04
-1.050954183147497861e+04
-1.050974753214718658e+04
-1.051080414700424262e+04
-1.050990728894674612e+04
-1.051432937322528414e+04
-1.051047835434516128e+04
-1.051191466046892128e+04
-1.051381587645496620e+04
-1.050820469093117390e+04
-1.050853551692816291e+04
-1.051051867306952772e+04
-1.050915496994251953e+04
-1.051105542831332059e+04
-1.051199756973479089e+04
-1.051120546020128677e+04
-1.051375288707863365e+04
-1.051315065858540038e+04
-1.051110289049131279e+04
-1.051020609545759362e+04
-1.051096786512015206e+04
-1.051026471700029470e+04
-1.051325453612882302e+04
-1.050942415326172159e+04
-1.051182075129009718e+04
-1.051508598557126606e+04
-1.051037745831354368e+04
-1.050996165137392381e+04
-1.051507352676143819e+04
-1.050934677227580869e+04
-1.051217694247735926e+04
-1.050627670349340042e+04
-1.051444659207603581e+04
-1.051309037893128516e+04
-1.051287526041387900e+04
-1.051361124906138684e+04
-1.051523585365471990e+04
-1.051456590897819297e+04
-1.051417774194796948e+04
-1.051144576802392294e+04
-1.051229527561177565e+04
-1.050921505920837080e+04
-1.051108922626805179e+04
-1.051271481457781374e+04
-1.051147712046722518e+04
-1.051068434987771980e+04
-1.051169582649549375e+04
-1.050887223789385826e+04
-1.050698158872867680e+04
-1.050957811017461245e+04
-1.050906944237672360e+04
-1.050762166266737040e+04
-1.050913116256212561e+04
-1.051146494473166786e+04
-1.050698885572795007e+04
-1.051365697992637251e+04
-1.051117522705271222e+04
-1.050945985787656900e+04
-1.050594898435244613e+04
-1.051081002039738451e+04
-1.051168951208637191e+04
-1.051206947539718021e+04
-1.050654166089737555e+04
-1.050714993556144691e+04
-1.051676751738661369e+04
-1.050866181691281417e+04
-1.051099048790219604e+04
-1.051165575970889222e+04
-1.050612178469705032e+04
-1.050884136426809710e+04
-1.050666642979280914e+04
-1.051492601926886164e+04
-1.051191364306284595e+04
-1.051018918962143289e+04
-1.051040779861544434e+04
-1.051164570254942555e+04
-1.051122942313728163e+04
-1.051071028925699284e+04
-1.051527178531661957e+04
-1.051655295066603867e+04
-1.051327525881779366e+04
-1.051368393536416443e+04
-1.051057041590004701e+04
-1.051110581974007800e+04
-1.051082776194350117e+04
-1.050967426388335298e+04
-1.051463559881464062e+04
-1.050706011848449089e+04
-1.051102923969974290e+04
-1.050855754698822420e+04
-1.051446456430098260e+04
-1.050971863451199351e+04
-1.051518332105993068e+04
-1.050877167402896339e+04
-1.050584678382588754e+04
-1.050885381752736430e+04
-1.050956401813629600e+04
-1.051202688700787076e+04
-1.051147500802526520e+04
-1.050822304680204979e+04
-1.051448940475096060e+04
-1.051090223123840224e+04
-1.051217890582272776e+04
-1.050576261367922416e+04
-1.051378912589756692e+04
-1.050854210388629326e+04
-1.050853442867350896e+04
-1.051238892971798668e+04
-1.051003562283572319e+04
-1.050683761857799982e+04
-1.051290168543583786e+04
-1.050743667400179220e+04
-1.050711852878419450e+04
-1.051141868476384298e+04
-1.051220969833271192e+04
-1.050900293942684766e+04
-1.051480330397257603e+04
-1.050730352258629318e+04
-1.051170982554771763e+04
-1.050968236128021090e+04
-1.051207349733483716e+04
-1.050720046311401165e+04
-1.051144517146663020e+04
-1.050641400928619078e+04
-1.050918389389329241e+04
-1.051121012460601014e+04
-1.051453953543829994e+04
-1.051320424889946116e+04
-1.050711603795615156e+04
-1.051378359282280508e+04
-1.051139995776017349e+04
-1.051134001702169735e+04
-1.050878226747238659e+04
-1.051211352341941347e+04
-1.051377845903049092e+04
-1.051215052290035237e+04
-1.051146005424359100e+04
-1.051669319506613283e+04
-1.050825239782748758e+04
-1.050954135258700262e+04
-1.051402589109572182e+04
-1.051096590387950710e+04
-1.050898263925556603e+04
-1.050925348871925598e+04
-1.051656682134800394e+04
-1.051013597384523382e+04
-1.050969459520220880e+04
-1.051396756586388256e+04
-1.051373874507728215e+04
-1.051123264444089364e+04
-1.051226341122462691e+04
-1.051646016076266824e+04
-1.051010988418119632e+04
-1.051180190994533041e+04
-1.051421378005970291e+04
-1.051085500811197744e+04
-1.051133685695498934e+04
-1.051048086119262371e+04
-1.051490314017592573e+04
-1.050942916386709112e+04
-1.051087410783702217e+04
-1.050895784371064292e+04
-1.051128313726179840e+04
-1.051144076760532698e+04
-1.051222441379583506e+04
-1.051141551129780964e+04
-1.051078478527008883e+04
-1.050960244136385882e+04
-1.050759951097207522e+04
-1.051634172276496975e+04
-1.051107393367684199e+04
-1.051320330816850583e+04
-1.050828624372649392e+04
-1.051509180853506587e+04
-1.051389384832544783e+04
-1.051014112093637414e+04
-1.050925882347663173e+04
-1.050963602662244921e+04
-1.051332726432139498e+04
-1.050577777111718569e+04
