1.689651863187880410e-01 -7.730746699483819206e-01 -2.410097079906945439e+00 -4.043743631417366369e-01 6.814523804259671191e-01 -1.526065938898950369e+00 8.426934586336286559e-01 7.026459837679603915e-01 -4.514209229709808535e-01 -9.955532547626502193e-01 -3.822808736939933283e-01 4.720278005720250913e-01 -1.522124951976397078e+00 -3.053596378157430111e-02 3.289649359211463953e-01 1.433497997634550214e-01 1.121498228799635566e+00 1.484835728636642482e+00 -1.118387193976899674e+00 7.071922083742096521e-02 9.567676493841911212e-01 -2.261634898621566192e-01 1.091958824602600409e+00 -8.654297238711933238e-01 1.771736902651240564e-01 1.213295353336881988e+00 -2.714930670016298397e-01 -8.974214462615552890e-01 -1.044690635681025728e-02 1.957082587197838952e-01 -4.648307686085521584e-01 -2.609309752232835677e-01 -7.789799796846298419e-01 1.497107089795282064e-01 9.217754496069426873e-01 7.122572815980028615e-02 -4.464679498449325989e-01 1.240809242465031464e-01 2.452775849689194654e-01 6.166400119866894958e-01 -3.964131993193238390e-01 4.845243903674180119e-01 6.111203677243346594e-02 8.977001538440217976e-01 5.046067629239678887e-01 -7.462590924382943580e-01 -4.493969505639910378e-01 9.424738584804576158e-02 4.793359041919791758e-02 3.258554437603060627e-01 3.507293241645010329e-01 3.326901558665724234e+00 7.900280099600810735e-02 3.391974122744721987e-01 -4.736465671211115280e-01 1.026308276533395736e+00 -1.001789208365182260e+00 -2.985333589278390543e-01 -2.853703391935592526e-01 -1.933141503019832896e+00 -2.941347156429328646e-01 2.278593895060215535e-01 -2.787482058965026210e-01 1.801096843847757700e+00 1.515463223690687311e+00 -2.156780169579570472e-01 2.271739334037559399e-01 -5.279127846216303821e-01 6.182423234755564379e-02 -2.195886648632308369e-01 -2.871680545225319126e-01 1.582370012763519296e-01 -2.121149821998187524e-01 7.583185946966086721e-01 1.035656293399927153e+00 -2.250716966165974942e+00 1.945353214585176793e-01 7.719464698820873716e-01 1.608872944129438043e-01 -6.865092261196504841e-01 4.643659131573532606e-01 2.514688013764798113e-01 9.543580115033085676e-01 -8.143578449357711246e-01 1.829027251687711519e+00 -1.451311628763346295e+00 -4.637812442989316941e-01 1.381803397513949039e-01 -4.833401402522509160e-01 -6.927570067967150358e-01 -3.421073868301518495e-01 4.668459992648004153e-01 -1.567087889805356182e+00 -7.856314235577023519e-02 6.479231383463521787e-01 6.308047335118270871e-01 -7.462452084812341013e-01 -9.238760408880792863e-01 1.691367303215756346e+00 -5.362421304164528557e-01 -3.223618287874684407e-01 1.642254090667077948e+00 -5.363979392679054659e-01 -2.019251861589370645e-01 1.367592396131944277e+00 4.102483054194410728e-01 -1.075123241115596651e+00 2.209354086980647391e+00 1.842783682031154502e+00 -1.368108673646328821e+00 -3.313390925784309160e-01 1.434423080551261220e+00 2.041430197441370109e-01 -1.416772457362763804e+00 2.001624378329306952e-01 3.885759626691887708e-02 1.632156854339930629e-01 1.112042739821045956e+00 2.867808463867434557e-02 -3.352862501485665558e-01 -1.005163009930796880e+00 1.352775642845611692e-01 1.395145880248746861e+00 2.298201127752929340e-01 8.381858005747687690e-01 -2.411648483553258115e-01 5.826356300432385948e-01 1.419104962148867721e-01 1.040155209708045481e-01 1.074992114854473213e+00 4.458714539119782438e-01 -5.169429158822214099e-01 6.496622325232932482e-01 5.946611937398502690e-01 6.991081458207830668e-01 5.013250068514554236e-01 -9.434714465062604694e-02 1.023834875294162838e+00 -2.714030783910548195e-01 -1.066738359492533927e+00 5.658638099145850697e-01 2.803386903108368577e-01 -1.170802217202732809e+00 -2.983574954717438943e-01 -5.801087498582924162e-01 8.990576963121247323e-01 -4.547715846081621938e-01 -3.117223468040277279e+00 -4.957904501907767214e-01 3.479494474286812244e-01 4.355572164781872369e-01 -1.419850582065060873e-01 -1.387259278417953268e-01 1.104760347232684792e+00 -2.231676918830199252e+00 -2.114526660259866686e-01 2.192312815240901047e-01 -1.425999632380808846e+00 6.333521825220475021e-01 -1.166273476097966721e+00 -6.702865936258205204e-03 -3.878853643606045565e-01 -2.695122891277159649e-01 1.519300852266237400e-01 -1.779922780889774625e+00 -1.631620008000271627e+00 -1.396194376117103841e+00 1.048622880852837502e+00 -1.248549805636377519e+00 -2.952325766919479122e-01 -4.594432790485846185e-01 -3.433780260114709937e-01 4.302340044972017274e-01 7.835400882479390816e-01 -5.752113125604847443e-01 4.507226113529188005e-01 6.371748986992736841e-01 3.053082157525573437e-01 -2.933140195144887663e-01 1.209770885126132817e-01 -6.413128321238282803e-01 -2.392776586364099844e-01 -1.262911473663516526e+00 3.017561338938775428e+00 2.396597245658798891e-01 -1.294793152838660921e+00 -3.661456587075790498e-02 2.288456646779236103e-01 -7.154315655584569944e-01 3.535565091984518293e-01 9.241773741783476659e-01 3.112783172884190167e-02
1.677611901313576848e+00 8.467892259663710730e-01 -3.212613966352941275e-01 1.279540340456513658e-01 -1.832430878049974066e+00 -9.264229756776678482e-01 -2.733221497891458185e-01 2.189582303685739528e-01 -6.234992009950321989e-01 2.407113057580277660e-01 -7.422466288479127872e-02 -2.023581085088976383e+00 4.465404549540245016e-01 5.457073895870477864e-01 1.269593770774500419e+00 -3.552230982663008851e-01 -2.754016580243761614e-01 1.566765987689813455e+00 1.038396575147093881e-01 -7.641416291317593146e-01 -4.082161054823414958e-01 -9.386866235268295222e-01 -3.741011661030413382e-01 -8.276751308596081991e-01 7.101731453770856461e-01 4.833211140888722668e-02 -1.020439476462009720e+00 -8.474417719481978084e-01 -6.466519849444013479e-01 -2.292986930545898028e-01 -4.545581830459414774e-01 -9.418130849685211192e-01 -1.670666837459713894e-01 1.572316999410711680e-01 -1.623785342453295533e-01 -6.570304999571745519e-01 -9.940810410936430641e-02 -3.180346621703903920e-01 4.544784788480035753e-02 1.238000055153195778e+00 -6.974842370653780987e-01 7.548301219300895815e-01 -3.274757529712880033e-01 1.940162671527210225e+00 2.190621029362090910e-01 -1.441185596080814812e-01 1.257151174145452466e-01 5.969916416434268847e-01 2.763997602708109236e-01 -1.936066389973836177e-01 7.421694957531344006e-02 3.536038174965826508e-01 3.592180783551992551e-01 -1.522077643678266534e-01 6.998614790464537938e-01 -7.125354749598373783e-01 -2.952200811305937478e+00 -4.598263734193182295e-02 1.732301322394114163e-01 1.052808122575523031e+00 -1.463317652075947495e-02 4.114382119615585254e-02 -4.119431766220423285e-01 3.284368313322290622e-01 -1.563722315769850990e+00 1.679567996597161605e-01 2.233265346362005854e-01 -1.075135068190129495e+00 5.006220672477067479e-01 2.894655923056697611e-01 -8.716867605196313429e-01 2.973089996033871363e-01 -1.259650286416278131e-01 -4.161896105999186857e-02 2.597683223746545256e-01 -1.024713164133374654e+00 -2.167825628751862410e-01 6.220136175895969455e-01 1.503534847693496768e-01 -4.515859877938069866e-01 9.050283120686184249e-03 -2.720345413269754098e-01 3.576908430785833981e-01 -1.749918521241540792e-01 1.228267401254035107e-01 2.735329802482072137e-01 -9.995420642039662407e-02 1.077369356835548853e-01 -1.222257190508888813e+00 -2.122543359910520067e-01 -3.015034972974460770e-01 1.624422976036798624e-03 -2.010055025588604938e+00 -1.100446550352034869e+00 6.256676693995738558e-02 -2.508136842914936993e-01 -2.567575605751307721e-01 5.816647814902922153e-01 4.618220636915558175e-01 -2.441565839914708325e-01 6.873098676434521437e-01 2.363261864757393749e+00 8.781088619908955506e-02 1.404228559269239951e-01 1.066657112632700244e+00 9.038111518330126382e-01 9.324578690131435366e-01 4.317704957451910103e-02 -1.719521911251199686e+00 9.939082629613389397e-01 -2.811244194363145960e-02 4.184645226752549130e-01 4.945712330726434458e-01 -4.892655045931411373e-02 -1.125547202054878904e+00 1.337152591608527175e+00 -1.492016305539896059e-01 -3.477895248121736227e-01 -5.984396869427367066e-02 -6.444572912876347925e-02 6.570994055218434271e-01 1.345362123996126869e+00 1.829612434766764995e-01 7.766582735317947850e-02 -1.301493961892391749e+00 -5.454461655060643954e-01 3.296020552840174256e-01 6.803020688725026632e-01 -3.017902267217696277e+00 5.134153623476812589e-01 -2.781095438717360313e-01 1.060524003156539719e+00 -5.749166641384306775e-01 1.895607510659313988e-01 -5.341050294704544621e-01 -8.921547985500741795e-01 3.751373206762335100e-01 1.966860492512602754e+00 -1.680642717717742984e-01 -1.672725262649038314e+00 -6.822062278722697271e-02 -4.924233334933760253e-01 -1.423482008167236357e+00 1.500207840205380616e-01 -7.191632646838445886e-02 5.817218599804283574e-01 1.199613999205690007e+00 -1.057261273247406042e+00 6.375358815828374714e-02 7.925590039100820494e-01 -3.502418430055004861e-01 -5.945058991090294842e-02 3.431543400366131036e-01 1.742374904572196181e-01 7.202153600966242353e-01 -3.798506669878363162e-01 -2.087010714249189769e-01 1.813419112848950965e+00 2.001039709470885164e+00 5.994341896447485940e-01 7.566957143824674104e-01 -2.821220074621174634e-01 -1.210953592579404325e-01 6.009321143453485448e-01 -1.606844857957393291e+00 4.986757421561273107e-01 1.125114742503487003e-01 -1.117738247539495910e+00 -3.189006097144378438e-01 -1.214546452134190213e+00 1.191027543094939078e+00 -8.700839348101325754e-01 2.066848123274070415e-01 9.285456784459743540e-01 -4.265141324463470607e-01 -2.381268328623136477e-01 2.227945219704811741e+00 1.033016798896604138e+00 2.270021837127156605e-01 -7.749942555671047728e-01 3.617110199784427937e-01 1.518827255064296944e+00 -1.430006439544239949e-01 2.128441984778553842e+00 -7.558045700274589329e-01 -2.895550666956129282e-01 4.245960894895197679e-01 -4.602686031627153951e-02 -9.732448210907905795e-01 1.086229378322447897e-01 1.303107072014527690e-01 7.691095146561313656e-02
-1.998614130750415274e+00 -4.010972350549108500e-01 -5.438757356963725975e-01 7.984319177465227790e-01 6.039145940101200427e-01 -1.341668477197496823e-01 4.742142666986817745e-02 6.902661220559990207e-01 -8.471208982739187876e-01 -4.702552820540134570e-01 2.792495710125633690e-01 6.850138725222099101e-01 1.187462965674904947e+00 2.021103055864056086e-01 -1.980474483741021530e-01 -2.340590391319443242e+00 -5.426117813832675996e-01 -5.444280086549871944e-01 1.835783082349051187e-01 3.833669076684756427e-02 2.370207442831889222e-01 1.402374279670763002e+00 1.663400899931571919e-01 -5.034991316829475760e-01 1.596500795726954469e-01 1.506122405913002060e+00 -6.398689005895734638e-01 6.400591622233605671e-01 -2.520231312176218208e-01 -1.382646719350194842e-01 -2.525748385335413460e+00 1.207236805852340833e+00 -1.270685461175933284e-01 -7.078838351240575033e-01 -9.076544368355130565e-01 -8.088587694986906773e-02 -8.634124363324177098e-01 2.987467604900598261e-01 -1.204809170249342865e+00 -8.709149153512138475e-02 1.444019980203611553e+00 1.195587651658248429e+00 9.202533565366455282e-01 1.312464859073064316e+00 6.296117416459183491e-02 4.563862373921936944e-02 3.979229510944565229e-01 2.072185733432747867e-01 -1.287968416612652635e-02 5.286702316123560383e-03 1.388287719681667864e-01 2.707222502744758841e-01 1.775587900963218946e+00 -7.686570005000969985e-02 8.072759983938342376e-01 -4.031957694535199255e-01 -1.849579621901778770e-01 -1.707392474986952902e-01 1.243606602702334585e-01 3.044828916384265116e-01 -4.764156452236623651e-01 -2.957647950459200703e-01 2.095608483213841911e-01 1.318196876456376510e+00 2.916206909737831254e-01 9.093271965509444610e-02 -2.271441086071082360e-01 -9.599301062701128817e-01 -1.986120626278813084e-01 8.240668446858663287e-01 -1.246038866291019065e-01 3.294663010372070877e-01 -3.329881981447968542e-01 1.678887168480582615e+00 -5.994799552809838561e-01 -6.124511707195809951e-01 1.652726193834849200e+00 5.493331592622727744e-01 -1.759384294632767576e+00 5.479319080404618791e-01 -1.483881849364547367e+00 -1.346640990707555566e-02 -9.820292521448065193e-01 -1.720335408290797896e-01 -4.453150671883088457e-04 -2.181143943116962969e-01 4.390091795798444219e-01 1.934274845292446088e+00 5.420888190006688534e-01 -3.459691837753992583e-01 8.811345361887431560e-01 2.676518388816567610e-03 1.509641731917432228e+00 -5.335270454802469864e-01 1.728378847414308028e+00 8.514568066417385617e-02 1.744550572065584060e+00 -1.035259315072133202e+00 -6.303398780606283003e-01 2.149317285549427581e+00 -1.144728145843783240e+00 -6.578090299938063046e-01 -4.773911217622953118e-01 -6.813901597295124457e-01 -7.199443658236355237e-01 7.170457041218566419e-01 -1.241508582524357251e+00 2.302751980344865390e-01 4.071902353217864423e-01 5.934954555674302190e-01 1.331292019067251253e+00 -4.415437730742683420e-01 -1.297751464133735100e+00 -8.097087762031505154e-01 1.376748608702793031e-01 -5.320023813067905616e-01 1.500885582998168655e+00 -1.802255897151963548e+00 -5.298858491860664044e-01 -3.708667183286596947e-01 1.224112498548629357e+00 3.436870726112171703e-01 -3.313205806356840921e-01 -1.220919702645428373e+00 5.193474115567855431e-01 1.326435719419991832e+00 3.308513028870512240e+00 6.968522599088257108e-01 -3.359809622222055814e-01 1.396485939215366567e+00 -2.042833505545708750e+00 9.929641538812493673e-01 4.547114207942348774e-01 -7.547828136319588710e-01 -1.497496869034229849e+00 -1.732553290503724142e-01 -1.515912138302298595e-01 -7.780929490946761340e-02 -9.643513752628207758e-01 -3.025936450369833275e-01 5.601611031072890878e-02 -1.918036786179660336e+00 -2.836852381829633174e-01 2.057867774159316543e+00 -7.170606165201804938e-01 -1.699062100750867055e+00 -2.032091950766844179e-01 -1.483408252162607133e-01 -2.188554376642656951e+00 8.796690073879503968e-01 2.076392058201339541e-01 -3.415129477797250179e-01 6.388389166639634187e-01 4.341616216833268371e-01 1.092733755094809300e+00 -4.132744938379204203e-01 1.738013799393415715e+00 -6.887337445730645769e-01 1.826434551261887640e-01 -2.547796109146921673e+00 1.142953570443244082e+00 5.185616824313078466e-01 -6.673992447779425463e-01 -1.762067497889798551e+00 -5.706805145731912443e-01 -1.145909824855790848e+00 -1.182712595477808659e-01 6.411508526247931827e-02 -1.784345592544378479e-03 -1.257337836234816431e+00 5.504279349874965366e-01 4.506989572038534037e-02 1.065789622426757122e+00 -1.310969505475623742e-01 1.504442447108724767e+00 9.015254411244074673e-01 -1.412733768520157696e-01 3.765164604108743873e-01 -1.179234407123926909e+00 1.082728050040132173e+00 3.377899904050791768e-01 -8.206488201459117837e-01 2.443303905650385244e-01 -2.185785298540106059e+00 5.627147227650917127e-01 -1.222278273554794792e+00 -1.164982268091373369e-01 -1.181781856134146991e-01 -9.386588556127092309e-01 5.749140930352712037e-02 1.844336628339363182e+00 -6.254033599947993460e-01
-6.238678971880737972e-02 6.329140665437051894e-01 3.286646310721418329e-01 -4.443750718732739635e-01 2.384492491984881168e-01 1.757832376765822713e-01 1.182295048324740527e+00 2.610649811199455161e+00 -4.601184507382130584e-01 -1.985453682119294516e+00 1.002383133194977072e+00 -1.851569655747065946e-01 1.585805006584325161e-01 3.300741098240623228e-01 -1.088122224468313970e+00 6.344454155853758090e-03 -4.482816060134928726e-01 1.078042985863281872e-01 3.010155019178136215e-01 -3.308423554480569018e-01 1.803279196209359170e-01 -7.964290283854390529e-01 -2.936930001201675799e-01 -5.796927453671200103e-01 -4.277487761834360969e-01 -5.065284054252181534e-01 6.139357256837526533e-01 1.534130975288998389e-01 4.562422556152737063e-02 3.296143965791819563e-01 8.170544179292301701e-01 -1.456782936286306729e+00 -5.669364741526392582e-01 1.190766319013955465e+00 -1.219401209119553853e+00 -1.704631110193879917e-01 -1.173903996054095344e-01 -1.895370969168659991e+00 1.041651591746749900e-01 -9.140199740372728643e-01 -4.214773413573060235e-01 5.987435913361642825e-01 1.858840735481526452e-01 -1.051094225209542987e+00 1.488283063752613156e-01 -1.772831164155832750e+00 7.375312256537825961e-01 1.215095125548381949e+00 6.876230280082531454e-01 -6.087780927462251856e-01 1.770070827804023361e+00 -3.720375987073984980e-01 -2.522382811299908489e+00 -3.677407711076000063e-01 6.685459567869839193e-01 -2.326077028205906505e-01 -1.236721188441767122e-01 1.472172531356527869e-01 1.835387132462521054e+00 -2.015472339945220404e-01 -1.016043404280262824e-01 7.024870895927164405e-01 1.197696984690126559e-01 -2.667308697300005971e-01 8.417791743501865653e-01 5.858315112702309202e-01 -2.441118467964992211e-01 -1.020332004349951555e-01 1.558376478081063554e-01 1.822413345920764760e-01 -1.805238376816735157e-01 1.131136266102534538e-01 -2.501529107795572582e-01 -9.615308750970842644e-02 -3.290358983683426275e-01 2.298818192511157821e-01 7.579355003258750334e-02 -6.461650180060325432e-01 -5.114613239466240247e-01 -2.938534369573069793e-01 -2.492062305963081981e-01 1.855986810974719348e-01 -8.686847404708492038e-01 1.668621267786186246e+00 4.285036520710023833e-01 -1.396664373774621215e-01 -9.779674233737668532e-01 -1.723832108587426692e-01 2.474429680496699827e-02 -3.553423974528917562e-01 5.007048567694356578e-01 -4.052110001097682102e-02 -1.820582720471353166e-01 -8.064105650704185280e-01 6.956068175384675367e-01 1.239591053788161812e+00 9.335547016208949334e-01 -2.577093829646984080e+00 -3.718617352513033381e-01 -1.810154840277921728e+00 2.141030620067049028e+00 5.104313400210140905e-01 -3.424596279629740225e-01 -3.436258803560261477e-01 3.829966688135384711e-02 1.045321070175682543e+00 -1.063928143739434340e+00 -2.715996135165505976e+00 1.429024278137392967e-01 -1.172114508255232279e-01 -7.066589615789736767e-01 1.746756064355619253e+00 -7.252644924808296922e-01 -2.888953216249401379e-01 -1.212199549170394297e+00 -1.045580237374138521e-01 -3.346882115537166968e-01 1.162881162589604944e+00 5.601009392933617992e-01 8.599758998497161189e-01 -1.338104928218726564e-01 2.857236087676451319e-01 -2.052912744150740820e-01 6.525454676061163140e-01 3.608059916663741706e-01 2.674502643939687396e-01 -4.132122731414657191e-02 2.018233190517661590e+00 -4.270679480668572170e-01 8.562868810367729733e-01 -5.821790021221493472e-01 -4.951929258165587155e-01 9.413631419156459623e-01 -4.382625312223877301e-01 -1.327820515581583198e-02 2.718519930026661036e-01 2.345173125590554353e+00 -3.584940557055443233e-01 -7.750662464555647668e-01 -2.896933920455824762e-01 7.590971247332404248e-01 -3.082999513887023091e-01 -8.777062272361514372e-01 -3.667472968468518668e-01 -2.010237573912914411e-01 -3.817208874259008233e-01 1.664907566382913540e-01 4.300900227202817949e-01 8.608125368177479420e-01 3.780123282289469255e-01 -7.159463004109460904e-01 5.327264039564453268e-01 8.966449731074509488e-01 2.173178665529495457e-01 -1.363024060038524887e-01 -4.278377363527473554e-01 -1.250476590343946537e+00 -1.546808570746804889e+00 2.147131847864034437e+00 9.211064485648965405e-01 6.869319154790370918e-01 -3.692006434814424365e-01 -5.561527532819625641e-01 -6.495794430015642273e-01 3.607144603939035910e-01 1.259634859797322676e-02 -9.980631656667450224e-01 5.789481538921907866e-01 -1.197131341995083531e-01 2.506242968327807574e+00 -1.095869986728505996e+00 -4.436618478568880586e-01 4.621938452083885762e-01 1.077182694746184666e+00 4.286815724096250113e-01 -8.055919258245018977e-01 2.861144164478565677e-01 1.263189667025351293e+00 4.737447832617961430e-01 -9.803379804866284575e-01 1.149787048419993879e-01 4.797760770528489704e-01 -2.306500648751104166e+00 -6.329284647213971604e-02 2.483495390236341582e-01 8.581432175177772237e-01 -1.940545251677312233e-01 4.360426407546603711e-01 -1.266650371877749981e+00 -7.550898033491775241e-01 1.759956107975393091e-01 5.731390034141002898e-01
1.238962161955400543e+00 -3.887713665092945026e-01 -1.090610538105870990e-02 -8.765713423016426031e-02 2.673659836324073780e+00 8.072220052274891033e-01 3.847295923428970671e-02 1.260347055372444736e+00 5.125663840844850716e-01 -4.759883278785890237e-01 -6.288692070535166767e-01 -5.968774846631547115e-01 1.134069380586647746e+00 -2.124363700947294320e-01 -1.114727485739972108e-02 -7.488924162940349127e-01 3.460134067497390165e-01 -2.970894273935841823e-01 4.333013305662298253e-01 1.244527571853990766e+00 -1.133529963143829811e+00 -4.218681490375174592e-01 -4.126718272573838830e-01 -8.733754610746504721e-01 -2.172690155929231370e-01 1.258522086349983748e+00 3.148572928861448784e-03 -3.928784466959376886e-01 1.403416090670905891e-01 5.746847506334629152e-01 8.351112754168946717e-01 -3.254348112834468676e-01 -2.983580096923757474e-01 -5.641360285915449774e-02 -8.753701229056242150e-01 1.176550689646264081e+00 2.153448019885136344e-01 9.074091535941171405e-02 -1.334774321186187773e+00 6.024454656649041312e-02 -2.703180728578361558e-01 -2.615428977751935863e-02 -2.607592255322432884e-01 7.328677587434699880e-01 1.086316795829863485e-01 5.457217877647398130e-02 1.667144426131492274e+00 1.669777235766601031e-01 -4.955528802588587411e-01 2.123386681746765869e-01 -1.417660002173349310e-01 -6.223252352925023878e-02 3.640342687931734655e-01 2.279730322656619845e-01 -2.612657328546225677e-01 6.155735183962176560e-01 -4.654133805844463123e-01 -1.071547350841661972e+00 9.618250092985064503e-01 -1.205667918704544483e+00 3.497183664022698868e-01 -9.174297710471177592e-01 1.135941143686607813e+00 -5.129571917646964518e-01 -2.888125321032111725e-01 -8.258023393183842875e-02 -8.051892910697577843e-01 -2.530665877237863626e+00 -2.218507214227705138e-01 -1.227940871152805924e+00 -4.716997278089001822e-01 2.810899666539801722e-01 4.043280832848694661e-01 -1.086661837873839742e+00 8.356326951375978584e-01 2.806580213232201526e-01 -1.079838644309726980e+00 -3.707278787580582380e-01 -2.881790122847631141e-01 -5.972189271627078577e-01 -3.338680296459044516e-01 -7.681427798682399950e-03 -2.350394521886432220e-01 -9.718651671355177379e-01 2.657595069564224199e-01 -1.431734220867280083e-01 -1.098111988683403428e+00 -4.305625914809584898e-01 1.870019377797469406e+00 -7.435218960149185818e-01 -1.102206213354249981e-01 -1.513056156912964134e+00 8.059390247510055394e-01 2.130592969681612381e+00 1.237339795861891245e+00 4.418867582357171031e-01 -5.072765964445703490e-01 -2.568368019744999842e+00 7.970008417280641799e-01 -9.980662509905360857e-02 -5.328246200971300528e-01 -9.048071971969198768e-02 -5.791744109702079424e-01 7.016648508023768382e-01 -4.659476558209459385e-01 2.752772166314667035e-01 -7.360142747898038573e-01 5.473765497580561634e-01 -1.931941826285710206e+00 -3.521449735640038159e-01 1.766106186732404604e-01 5.858289401670715435e-01 4.402654205834714146e-02 -1.850248108723193119e-01 3.806631355861705979e-01 -1.165911464773139450e+00 -5.041902442121635186e-01 1.568887147796224346e-01 -6.392204683728014425e-01 5.202951201812983095e-01 1.105985734998400222e-01 -7.531676466272954062e-01 4.192903610100175149e-02 -1.062032726490408807e+00 1.937603909663089263e-01 1.107970112416737152e+00 2.780987452384670600e-01 8.481534533026879874e-01 -5.598895946136684953e-01 2.419485205982761233e-01 -2.266982793192880430e-01 7.492621409283402034e-01 -7.177645845651929590e-02 1.974401538078788265e-01 7.170919839787238681e-01 7.979758040460653845e-01 3.734691889464887837e-01 2.528453700079614230e-01 -8.571116909302717302e-01 4.830012688558570355e-01 3.872029935821301172e-01 -1.373221055168252769e-01 -6.086551940152112872e-01 1.365360678589684129e+00 -5.387258160683230379e-01 3.413746224297554699e-01 2.468151046581723851e-01 1.104255896792832869e+00 -8.834223037798757394e-01 1.130524343550624311e-01 -3.370381998413038982e-01 -5.350532523155990816e-01 1.732219047093017106e-01 1.962084411283913532e+00 5.466108752372207391e-01 3.843593534879599649e-02 -1.922794355465602678e-01 -1.343761355169155458e-01 7.152495314547795413e-01 -1.723461869732489243e-02 -1.192019988914423401e-01 -6.166502963993265585e-01 -4.557619735451191034e-01 1.856199698316308044e+00 3.703761518458679736e-01 1.281447070559439849e+00 2.015976276164440417e+00 -7.668279177125811863e-01 3.533837310661477882e-01 1.626577560484280538e-01 -7.295273815189258215e-01 3.918628609480198088e-01 1.799452366267078496e+00 -6.606835233258878670e-01 1.588036724126585253e-01 -4.054254301132526606e-01 -3.628752154889673676e-02 7.781171174643733979e-01 -6.111753893319433750e-01 -1.099800689238422224e+00 -7.121441530589941449e-01 -1.879208500488757316e+00 -4.417772292411315527e-01 -3.591265470827286616e-02 -1.980366497408331608e-02 -4.167552532949616029e-01 3.460602008272379848e-01 -6.530077519541559461e-01 2.820741849433547888e-01 -1.172660096345632841e+00 5.610023680610074504e-01 1.111421561297762484e+00
-1.212239144159047294e-01 4.724931702438557868e-01 -5.568330671779094798e-01 6.845253629219455460e-01 1.612153671760686580e-01 -6.347112676520459962e-01 9.857455246512383806e-02 -2.164235340300235677e+00 1.030357249788639074e+00 2.949816370236016394e-01 -4.143502433997656720e-01 2.591512576164258785e-01 -5.706105805672586628e-01 3.742369203498515651e-01 1.522178430922110026e+00 -4.938091580962311045e-01 -8.577457249693516694e-02 -6.778178690000007389e-01 1.288606050196155484e-01 -1.072471919537741014e+00 9.241984572242536999e-02 -5.303687023593802730e-01 -5.383890015544565318e-03 7.361114624892249880e-01 1.817487626488204944e+00 -3.544383975820868393e-01 -1.871279732566151655e+00 -1.606168143605869042e-02 -1.984891638968674654e-01 -4.196102062430326352e-01 -3.520843983735711280e+00 -1.215535298409251563e-01 -2.449371709106300254e-01 -4.741016523803051053e-01 2.693348830097253011e-01 1.202510089804309512e-01 -3.641957340715766822e-01 -1.889240430795658732e+00 1.109091627614817721e+00 -5.071058751947937759e-01 7.730381602835201260e-02 -1.255983893311136412e-01 -5.258358474895592494e-01 -1.192179911530931058e+00 2.633580966056494055e-01 -4.264138594231348667e-01 1.981456645147868512e-01 1.756474834297720028e-02 7.151914245233796930e-01 -1.763699634175313058e-01 -1.712964055533125141e+00 4.518703518032240463e-01 -1.433288195616752247e+00 -1.963957717045768936e-01 2.321238212060130479e+00 -3.489501207782752523e-02 -2.322199804641703613e-01 -1.024702879720737481e-01 6.125535006253206571e-01 -5.549890719920697046e-01 -3.517968461962365789e-01 8.003329914224986963e-01 -4.145405050335528863e-01 -1.328397985351158717e+00 4.894465102555549674e-01 -5.279842612894585230e-01 -2.578734193462607904e-01 3.930157436046435859e-01 -2.648616777331997407e-01 5.046818391362190709e-02 -5.634320605465326093e-01 2.040478889272434315e-01 -1.810616096184697543e+00 -4.673905589139371042e-02 -1.008181999260430173e+00 -1.270186667163031580e-01 6.932429452938201342e-01 1.813789865924519962e-01 -5.104729918921944165e-01 1.597416108451660266e-01 1.646246499652816997e-01 -2.530582573495502793e-02 9.396199339736502343e-02 -1.186430410646135969e-01 1.785230052031172854e-01 -6.944806743547004002e-01 1.981501896563471865e+00 1.835464265557299746e-01 -2.397493532220125623e+00 -1.665663470711743477e-01 1.674718896038748517e-01 9.606757261863059227e-01 -1.348465445509384741e+00 -1.120256385973700475e+00 4.737298708634722910e-01 6.715027254201626494e-01 6.396647549987259929e-01 2.015261509486158953e-01 3.452806423493424703e-01 1.834034732200736650e-01 2.563852648376661603e-01 -1.261154381764460597e+00 -6.160856821455474863e-01 5.252095267599572737e-02 5.110910850916868808e-01 6.316521691131276039e-01 5.206396480046426856e-01 1.091543334332059745e+00 9.154469362906765273e-01 7.326101342069095412e-02 2.038252313936493032e-01 6.236416401100566276e-01 2.229820068128563204e-01 -3.596664787461786861e-02 -9.059945326358780360e-01 4.683434097447685129e-01 6.739067068740950406e-01 -2.582724545565820082e-02 4.545828656362705944e-01 -3.747233730675884611e-01 1.582616838666810882e-02 -4.094584625289083846e-01 -9.253317994968669469e-01 1.880409205664143713e+00 -5.709386533303835165e-01 -2.809084467709346139e-02 3.946097247192743573e+00 -2.935207362084953919e-01 4.788417381647644411e-01 1.027633937322323332e+00 1.836939050329466250e+00 1.938299135957360031e+00 -2.315147268675782577e+00 -3.786926421248939384e-02 -1.131069417420393075e-01 -1.054786843566909216e+00 3.546389436285111163e-01 5.897951239005858604e-01 1.866800870862675710e-01 -6.963467810277099712e-01 -2.090718245004880016e-02 9.593094419674612350e-02 1.275886802867168379e+00 -1.483268898371373767e+00 5.675016026270501834e-01 -4.548970544423353024e-01 3.513098792578678298e-01 1.341582602351976572e+00 3.220260427148657345e-01 5.233902141644466433e-01 2.700105689199855941e-01 4.916987966230892404e-01 -3.527450690413811984e-01 -6.318074637439485830e-02 -8.817289752391700430e-01 1.336865142275319052e+00 -7.875196417178816910e-01 2.510643154274609046e+00 -3.382594738419647529e-01 2.938236121606592754e-01 8.288768644762583016e-01 1.121302310738897967e+00 -9.573127232539598852e-01 -8.549020848751814894e-01 1.120867280084346801e-01 -8.932660293355175751e-01 1.124914196457062754e-01 -2.040920090574568135e+00 1.992962846006304911e+00 5.287715330768320010e-01 8.709920484459923729e-02 -3.882016100491967325e-01 4.547854685652223394e-01 4.479643318836370458e-01 7.648995903431167198e-01 -4.741870130051934473e-01 -1.932420565693968861e-01 1.408945505125265951e+00 6.734207683769900532e-01 4.764917498771772397e-01 -3.588308702194107913e-01 -9.780815803540391373e-01 -9.619782470467999613e-02 -2.018660507862735098e-01 -5.992315867157969184e-02 -5.798197578631886923e-02 -7.722663151151025751e-01 2.161500714980019444e-01 -1.464880882796793515e-01 -1.353702268424218147e+00 4.704347450545315890e-01 -9.829995864771211289e-02