1.254950000000000010e+00 5.562330000000000219e+00 7.391060000000000407e+00 5.378359999999999808e+00 4.653400000000000425e+00 2.322979999999999823e+00 7.568480000000000096e+00 2.623689999999999856e+00 1.888700000000000045e+00 1.134430000000000049e+01 1.272759999999999891e+00 7.376949999999999896e-01 5.134549999999999947e+00 2.874969999999999803e+00 9.468619999999999592e+00 9.975910000000000721e+00 4.156710000000000349e+00 6.336090000000000444e+00 1.547330000000000094e+00 4.278240000000000265e+00 4.452820000000000000e+00 1.578859999999999930e+00 2.951319999999999943e+00 7.699069999999999858e+00 1.945089999999999986e+00 8.284050000000000580e+00 7.368260000000000254e+00 5.312520000000000131e+00 1.110650000000000048e+01 1.124230000000000018e+01 5.929199999999999748e-02 1.028940000000000055e+01 6.972739999999999938e+00 7.076710000000000278e+00 4.463709999999999845e+00 7.445420000000000371e+00 4.030269999999999797e+00 6.269730000000000025e+00 1.114080000000000048e+01 1.114480000000000004e+01 1.077970000000000006e+01 3.997930000000000206e+00 3.256009999999999849e+00 -7.856399999999999495e-02 6.668809999999999460e-01 1.159319999999999951e+01 1.840049999999999963e+00 9.763249999999999318e+00 1.064550000000000018e+01 1.175590000000000046e+01 1.147129999999999939e+01 7.432719999999999771e+00 3.547019999999999840e+00 4.546280000000000321e+00 1.152669999999999995e+01 4.460189999999999877e+00 9.764210000000000278e+00 1.079110000000000014e+01 1.627520000000000078e+00 3.482899999999999885e+00 5.143309999999999604e+00 5.351749999999999563e-01 8.011929999999999552e+00 3.669449999999999878e+00 1.458029999999999937e+00 6.222249999999999837e+00 4.493839999999999613e+00 3.978779999999999983e+00 7.035129999999999661e+00 1.414630000000000054e+00 1.201290000000000013e+01 8.153990000000000293e+00 8.392929999999999779e+00 1.054090000000000060e+01 4.630499999999999616e+00 8.782009999999999650e+00 7.269149999999999778e+00 3.964560000000000084e+00 8.053599999999999426e+00 1.087420000000000009e+01 1.091099999999999959e+01 3.767100000000000115e+00 2.660839999999999872e+00 1.164259999999999984e+01 4.701399999999999579e+00 6.200370000000000381e+00 7.929170000000000051e+00 3.454390000000000072e+00 1.139780000000000015e+01 9.489179999999999282e+00 4.771180000000000199e+00 9.000220000000000553e+00 7.904149999999999565e+00 5.312519999999999465e-01 5.494930000000000092e+00 1.188090000000000090e+00 2.206820000000000004e+00 2.882530000000000037e+00 1.413759999999999906e+00 3.394859999999999989e+00 6.402669999999999639e+00 1.395459999999999923e+00 8.193699999999999761e+00 1.134120000000000017e+00 4.266720000000000290e+00 4.868059999999999832e+00 2.813719999999999999e+00 4.610789999999999722e+00 1.060960000000000036e+01 4.505429999999999602e+00 3.614409999999999901e+00 1.528039999999999954e-01 9.171789999999999665e+00 1.249600000000000044e+00 3.836979999999999835e-01 8.298019999999999285e+00 4.288079999999999892e+00 6.765060000000000073e+00 4.779650000000000176e+00 1.086529999999999951e+01 2.716209999999999791e+00 8.771259999999999835e+00 1.069790000000000063e+01 3.087909999999999933e+00 9.606139999999999901e+00 2.298350000000000115e+00 5.827390000000000292e+00 8.376390000000000668e+00 3.746840000000000170e+00 2.709750000000000103e+00 1.072320000000000029e+01 5.564350000000000129e+00 7.669369999999999798e+00 9.445909999999999584e+00 1.916530000000000067e+00 5.514310000000000045e+00 2.459469999999999990e-01 2.052210000000000090e+00 -1.274899999999999992e-02 9.238910000000000622e+00 9.471679999999999211e+00 2.683040000000000092e+00 1.523849999999999927e+00 9.747090000000000032e+00 9.197160000000000224e+00 1.495519999999999960e+00 9.004179999999999851e+00 1.069909999999999961e+01 6.834929999999999950e+00 6.604960000000000164e+00 1.615310000000000024e+00 1.203190000000000026e+01 2.708470000000000155e+00 9.649390000000000356e+00 1.167830000000000013e+01 1.875639999999999974e+00 9.636559999999999349e+00 6.095360000000000333e+00 9.509080000000000865e+00 7.921039999999999637e+00 7.174030000000000129e+00 6.814490000000000158e+00 9.699630000000000862e+00 8.844789999999999708e+00 1.177229999999999954e+01 6.360260000000000247e+00 1.246879999999999988e+00 1.076270000000000060e+01 3.516550000000000065e+00 6.133729999999999905e+00 5.146799999999999820e+00 5.268979999999999997e+00 1.137340000000000018e+01 4.834459999999999980e+00 6.488620000000000054e+00 8.053219999999999601e+00 9.525150000000000006e+00 2.284720000000000084e+00 4.983039999999999914e+00 9.877950000000000230e+00 8.168509999999999494e+00 1.120780000000000065e+01 8.305389999999999162e+00 1.136909999999999954e+01 1.073139999999999983e+00 6.058360000000000412e+00 1.028909999999999947e+01 4.068089999999999762e+00 2.551359999999999739e-01 7.293890000000000207e+00 6.571439999999999948e+00 1.111969999999999903e+00
1.151610000000000023e+00 5.401299999999999990e+00 7.328879999999999839e+00 5.400089999999999613e+00 4.781819999999999737e+00 2.611530000000000129e+00 7.312149999999999928e+00 2.710420000000000051e+00 2.008469999999999978e+00 1.167099999999999937e+01 1.609909999999999952e+00 7.030309999999999615e-01 5.069729999999999848e+00 2.986429999999999918e+00 9.216369999999999507e+00 9.838279999999999248e+00 4.058329999999999771e+00 6.353600000000000136e+00 1.413210000000000077e+00 4.309709999999999930e+00 4.304409999999999847e+00 1.667869999999999964e+00 2.665669999999999984e+00 7.493890000000000384e+00 1.863019999999999898e+00 8.186840000000000117e+00 7.601079999999999615e+00 5.260309999999999597e+00 1.079460000000000086e+01 1.109140000000000015e+01 1.374269999999999936e-01 1.011810000000000009e+01 6.956850000000000200e+00 7.048680000000000057e+00 4.469120000000000203e+00 7.366679999999999673e+00 4.278649999999999842e+00 6.554809999999999803e+00 1.112190000000000012e+01 1.110379999999999967e+01 1.089109999999999978e+01 4.097649999999999793e+00 3.398610000000000131e+00 1.034500000000000003e-01 4.901860000000000106e-01 1.149569999999999936e+01 1.762040000000000051e+00 9.513099999999999667e+00 1.059929999999999950e+01 1.192120000000000068e+01 1.153580000000000005e+01 7.334249999999999936e+00 3.594910000000000050e+00 4.519250000000000433e+00 1.165240000000000009e+01 4.379100000000000215e+00 9.568669999999999121e+00 1.079889999999999972e+01 1.665569999999999995e+00 3.437450000000000117e+00 5.140310000000000379e+00 5.373809999999999976e-01 7.904869999999999841e+00 3.798519999999999897e+00 1.422279999999999989e+00 6.448389999999999844e+00 4.539889999999999759e+00 3.738490000000000091e+00 7.092570000000000263e+00 1.608209999999999917e+00 1.208259999999999934e+01 8.162000000000000810e+00 8.461380000000000123e+00 1.037219999999999942e+01 4.515349999999999753e+00 8.674530000000000740e+00 7.465379999999999683e+00 4.037410000000000387e+00 8.208759999999999835e+00 1.075590000000000046e+01 1.100280000000000058e+01 3.763139999999999930e+00 2.906610000000000138e+00 1.172659999999999947e+01 4.587469999999999715e+00 6.260769999999999946e+00 7.894440000000000346e+00 3.340920000000000112e+00 1.155540000000000056e+01 9.857659999999999201e+00 4.892830000000000013e+00 9.231469999999999843e+00 8.169409999999999172e+00 5.185840000000000449e-01 5.542830000000000368e+00 1.117380000000000040e+00 2.142990000000000173e+00 2.955659999999999954e+00 1.580430000000000001e+00 3.246989999999999821e+00 6.373660000000000103e+00 1.463529999999999998e+00 8.165399999999999991e+00 1.427929999999999922e+00 4.091940000000000133e+00 4.810740000000000016e+00 2.757190000000000030e+00 4.602369999999999628e+00 1.062969999999999970e+01 4.456059999999999910e+00 3.761629999999999807e+00 9.799900000000000277e-02 8.890190000000000481e+00 1.008280000000000065e+00 3.692010000000000014e-01 8.232920000000000016e+00 4.348690000000000389e+00 6.822860000000000369e+00 4.558550000000000324e+00 1.101060000000000016e+01 2.850940000000000030e+00 8.788299999999999557e+00 1.063219999999999921e+01 2.815179999999999794e+00 9.451629999999999754e+00 2.419929999999999914e+00 5.789550000000000196e+00 8.356780000000000541e+00 3.891849999999999810e+00 2.563460000000000072e+00 1.083189999999999920e+01 5.402210000000000178e+00 7.740380000000000038e+00 9.308210000000000761e+00 1.775460000000000038e+00 5.561410000000000409e+00 3.545539999999999803e-01 1.978010000000000046e+00 3.758600000000000135e-02 9.111269999999999314e+00 9.344239999999999213e+00 2.714799999999999880e+00 1.624579999999999913e+00 9.651970000000000383e+00 9.137029999999999319e+00 1.472930000000000073e+00 8.952740000000000364e+00 1.079199999999999982e+01 6.797259999999999636e+00 6.520310000000000272e+00 1.572920000000000096e+00 1.201420000000000066e+01 2.842719999999999914e+00 9.533239999999999270e+00 1.171550000000000047e+01 1.915610000000000035e+00 9.676439999999999486e+00 6.096420000000000172e+00 9.468759999999999621e+00 8.030939999999999301e+00 7.305299999999999905e+00 6.973969999999999558e+00 9.752250000000000085e+00 8.824659999999999727e+00 1.165329999999999977e+01 6.303889999999999993e+00 1.296699999999999964e+00 1.090719999999999956e+01 3.600820000000000132e+00 6.051179999999999559e+00 5.156209999999999738e+00 5.194759999999999600e+00 1.114240000000000030e+01 4.963569999999999816e+00 6.468340000000000423e+00 8.066750000000000753e+00 9.678309999999999746e+00 2.460749999999999993e+00 5.131149999999999878e+00 9.956619999999999138e+00 8.019059999999999633e+00 1.110539999999999949e+01 8.237610000000000099e+00 1.140719999999999956e+01 1.154670000000000085e+00 5.769359999999999822e+00 1.032750000000000057e+01 4.120420000000000194e+00 1.851349999999999940e-01 7.444689999999999586e+00 6.615800000000000125e+00 1.217109999999999914e+00
7.815339999999999954e+00 1.098400000000000043e+00 1.145199999999999996e+01 6.843910000000000160e+00 1.224220000000000086e+00 8.325120000000000076e+00 9.249029999999999418e+00 6.011219999999999786e+00 1.507409999999999917e+00 1.015750000000000064e+01 5.211770000000000014e-01 5.115940000000000154e+00 9.119049999999999656e+00 9.792329999999999757e+00 4.079200000000000159e+00 3.463809999999999945e-01 4.983819999999999695e+00 6.970489999999999853e+00 4.270279999999999632e+00 8.975659999999999528e+00 5.928390000000000271e+00 3.055740000000000123e+00 8.091359999999999886e+00 9.318120000000000402e+00 1.183960000000000079e+01 9.010109999999999175e+00 5.257100000000000328e+00 9.392379999999999285e+00 1.217370000000000019e+01 8.281449999999999534e+00 1.113339999999999996e+01 1.043019999999999925e+01 7.962040000000000006e+00 2.188489999999999824e+00 5.394949999999999690e+00 9.751099999999999213e+00 6.470449999999999591e+00 7.873879999999999768e+00 9.889409999999999812e+00 9.326109999999999900e+00 5.723770000000000024e+00 1.022220000000000084e+01 6.554190000000000182e+00 3.852679999999999882e+00 9.701959999999999695e+00 3.578069999999999862e+00 1.143459999999999965e+01 6.338790000000000369e+00 5.566139999999999866e+00 8.396169999999999689e+00 7.573339999999999517e-01 1.052239999999999931e+01 3.046819999999999862e+00 1.116300000000000026e+01 1.075929999999999964e+01 1.058970000000000056e+01 1.066009999999999991e+01 5.870049999999999990e+00 3.379560000000000120e+00 4.105629999999999669e+00 1.147400000000000020e+01 -6.752179999999999849e-01 2.966579999999999995e+00 2.107959999999999834e+00 1.056460000000000043e+01 6.017949999999999688e-01 2.558059999999999778e+00 1.193210000000000015e+01 3.172989999999999977e+00 1.118019999999999925e+01 6.757819999999999938e-01 1.082099999999999973e+01 1.137880000000000003e+01 1.037579999999999991e+01 1.093390000000000084e+00 3.663559999999999928e+00 9.153439999999999799e+00 1.161400000000000077e+01 8.768079999999999430e+00 9.386329999999999174e+00 1.635659999999999892e+00 2.457949999999999857e+00 9.374719999999999942e+00 3.905250000000000110e+00 7.010869999999999713e+00 5.065150000000000041e+00 6.246550000000000047e+00 6.553130000000000344e+00 2.700829999999999842e+00 6.565470000000000361e+00 1.115499999999999936e+01 8.228889999999999816e+00 2.492109999999999825e+00 8.129989999999999384e+00 1.054229999999999912e+01 9.571699999999999875e+00 8.423909999999999343e+00 7.758149999999999658e+00 1.177630000000000088e+01 5.273600000000000065e+00 4.966349999999999931e-01 1.095570000000000022e+01 3.100249999999999950e+00 2.079950000000000188e+00 3.935189999999999966e+00 4.817120000000000068e+00 5.716599999999999682e+00 4.378350000000000186e+00 8.209139999999999660e+00 1.140339999999999954e+01 6.150769999999999627e+00 9.425230000000000885e+00 2.682770000000000099e+00 8.354939999999999145e+00 1.229789999999999939e+00 1.121990000000000043e+00 8.279360000000000053e-01 6.586599999999999788e+00 5.604809999999999626e+00 2.174789999999999779e+00 3.424160000000000093e+00 4.468569999999999709e+00 1.640819999999999945e+00 3.115650000000000031e+00 9.133689999999999864e-01 8.748060000000000613e+00 4.381230000000000402e+00 6.059070000000000178e+00 1.114980000000000082e+01 7.187249999999999694e+00 1.085730000000000040e+01 -9.013799999999999590e-02 1.691300000000000026e+00 1.114230000000000054e+01 1.014140000000000086e+01 1.380460000000000020e+00 7.648729999999999585e+00 5.225859999999999950e-01 6.872560000000000002e+00 3.456620000000000026e+00 1.235720000000000063e+01 6.743590000000000195e+00 8.227220000000000866e+00 4.492840000000000167e+00 1.102190000000000047e+01 8.172129999999999228e+00 1.010619999999999941e+01 9.415010000000000545e+00 3.200380000000000003e+00 4.260349999999999859e+00 1.081559999999999988e+01 3.422099999999999920e+00 1.608130000000000059e+00 4.245230000000000281e+00 4.494710000000000427e+00 7.879439999999999777e+00 2.282649999999999957e-01 2.268240000000000034e+00 8.606899999999999551e+00 3.257270000000000110e+00 7.294889999999999652e+00 2.333019999999999872e+00 6.086109999999999687e+00 8.422619999999999552e-01 3.220429999999999904e+00 1.862549999999999928e+00 7.852210000000000356e+00 6.196489999999999831e+00 8.584329999999999572e+00 2.161129999999999995e-01 1.907729999999999926e+00 5.101110000000000255e+00 1.028330000000000055e+01 2.860469999999999846e+00 7.470820000000000238e-01 1.237100000000000044e+01 6.289250000000000007e+00 9.801909999999999457e+00 6.638270000000000337e+00 4.876739999999999853e+00 1.045509999999999939e+00 3.491620000000000168e+00 5.594680000000000319e+00 8.374390000000000001e+00 7.499259999999999593e+00 8.071249999999999147e+00 4.784679999999999822e+00 1.054379999999999917e+01 8.971650000000000347e+00 3.608629999999999782e+00 2.337009999999999810e+00 1.186350000000000016e+01
4.157279999999999864e-01 7.850349999999999717e+00 1.223520000000000074e+01 1.308070000000000066e+00 5.745169999999999888e+00 7.506559999999999899e-01 3.205060000000000020e+00 7.347019999999999662e+00 5.852260000000000240e+00 3.994209999999999816e+00 2.719860000000000166e+00 1.079850000000000065e+01 2.864539999999999864e+00 4.411179999999999879e+00 3.530580000000000052e+00 1.155450000000000088e+01 7.555089999999999861e+00 6.505460000000000242e+00 6.177419999999999689e+00 1.121059999999999945e+01 8.181010000000000559e+00 1.233460000000000001e+01 1.011239999999999917e+01 1.199760000000000026e+01 6.197379999999999889e+00 3.059680000000000177e+00 1.000040000000000084e+01 9.104639999999999844e+00 1.027679999999999971e+01 9.150669999999999860e+00 7.706169999999999964e-01 3.980449999999999822e-01 2.901549999999999851e+00 1.047000000000000064e+01 1.176249999999999929e+01 1.634870000000000045e+00 5.589949999999999974e+00 5.141079999999999650e+00 2.639969999999999928e+00 2.319080000000000030e+00 2.948399999999999910e+00 1.187880000000000047e+00 1.100900000000000034e+01 8.813480000000000203e-01 4.473300000000000054e+00 6.515240000000000364e+00 1.022139999999999915e+01 2.057739999999999903e+00 2.521770000000000067e+00 2.389339999999999797e+00 4.884710000000000107e+00 6.964039999999999786e+00 3.436970000000000081e+00 4.712860000000000049e+00 4.602089999999999570e+00 9.684380000000000877e+00 6.140620000000000189e+00 1.022359999999999935e+01 5.971169999999999867e+00 1.221829999999999927e+01 8.705120000000000857e+00 9.282519999999999882e+00 2.890489999999999782e+00 4.972070000000000434e+00 5.868079999999999963e+00 1.186619999999999919e+01 9.276839999999999975e+00 3.838519999999999932e+00 1.716220000000000079e+00 8.879789999999999850e+00 5.370500000000000274e-01 6.867519999999999847e+00 6.657390000000000363e+00 9.635519999999999641e+00 1.072569999999999979e+01 8.075630000000000308e+00 3.219110000000000027e-01 1.074900000000000055e+01 1.047240000000000038e+01 1.955850000000000088e+00 1.021599999999999930e+01 3.486139999999999795e+00 9.337659999999999627e+00 8.731400000000000716e+00 7.773990000000000400e+00 5.661710000000000242e+00 1.132690000000000019e+01 7.365770000000000373e+00 8.952669999999999462e+00 6.681569999999999787e+00 9.384240000000000137e+00 4.900050000000000239e+00 9.343550000000000466e+00 2.844640000000000057e+00 9.058279999999999887e+00 1.597040000000000015e+00 4.276740000000000208e+00 4.260609999999999786e+00 6.751800000000000246e+00 1.136730000000000018e+01 2.870150000000000201e+00 7.200070000000000192e+00 6.017470000000000319e+00 1.518459999999999921e+00 7.593799999999999883e+00 4.702359999999999651e+00 2.822219999999999729e-01 5.398019999999999818e+00 1.942709999999999992e-01 4.057019999999999627e+00 9.731659999999999755e+00 9.100110000000000809e+00 9.981239999999999668e+00 1.209289999999999948e-01 4.765740000000000087e+00 8.228989999999999583e+00 2.629809999999999981e+00 8.209099999999999397e+00 3.781269999999999909e-01 3.612560000000000215e+00 2.976189999999999891e+00 1.182399999999999984e+01 9.299099999999999255e+00 1.836140000000000105e+00 1.144780000000000086e+01 5.296490000000000364e+00 6.717559999999999754e+00 3.196969999999999867e+00 1.043819999999999970e+00 4.980290000000000106e+00 2.721760000000000179e+00 3.482120000000000104e+00 9.680089999999999861e+00 5.881870000000000154e+00 5.949349999999999916e+00 1.150159999999999982e+01 8.223900000000000432e+00 2.606580000000000119e+00 7.559820000000000206e+00 4.211420000000000385e+00 7.655879999999999797e+00 8.183260000000000645e+00 6.705540000000000056e+00 1.690839999999999899e+00 2.578650000000000109e+00 2.487080000000000179e+00 8.219659999999999300e+00 4.622560000000000002e-01 9.125819999999999155e+00 9.088129999999999598e+00 1.044890000000000008e+01 1.008680000000000021e+01 6.077919999999999767e+00 1.102829999999999977e+01 1.027610000000000051e-01 8.252679999999999794e+00 1.307839999999999892e+00 6.386379999999999946e+00 7.570179999999999687e+00 5.651909999999999989e+00 6.434660000000000046e+00 5.899619999999999642e+00 3.454709999999999948e+00 8.723150000000000404e+00 1.100329999999999941e+01 7.704450000000000465e-01 8.946880000000000166e+00 4.510830000000000339e+00 5.703979999999999606e+00 2.498900000000000010e-01 6.863420000000000076e-01 1.175699999999999967e+01 5.965720000000000134e+00 4.355710000000000193e+00 1.166109999999999935e+01 2.962730000000000086e+00 2.947480000000000100e+00 2.839339999999999975e+00 1.241539999999999999e+01 5.987609999999999877e-01 5.932620000000000005e+00 7.338149999999999729e+00 8.497320000000000206e+00 9.158620000000000871e+00 7.581260000000000332e+00 8.493969999999999132e+00 1.180499999999999972e+01 1.285320000000000018e+00 4.852999999999999675e-03 2.844349999999999934e+00 5.218689999999999607e+00 1.036560000000000059e+01
1.747719999999999940e+00 3.658619999999999983e+00 1.171930000000000049e+01 3.755939999999999834e+00 6.439079999999999693e+00 2.197340000000000071e+00 2.167460000000000164e+00 4.350590000000000401e+00 5.113760000000000083e+00 4.960650000000000226e+00 3.143310000000000048e+00 6.974549999999999805e+00 7.782399999999999984e+00 2.226599999999999913e+00 2.609519999999999840e+00 1.080300000000000082e+01 5.027969999999999828e+00 3.774830000000000130e+00 1.496159999999999990e-01 5.647999999999999687e+00 6.440529999999999866e+00 1.138519999999999932e+01 8.330729999999999524e-01 2.645620000000000083e+00 3.125199999999999978e+00 9.012829999999999231e+00 2.429110000000000102e+00 4.604809999999999626e+00 1.069539999999999935e+01 1.220250000000000057e+01 2.155910000000000049e-01 1.012700000000000067e+01 4.615899999999999892e+00 4.934440000000000381e+00 7.381039999999999601e+00 6.375779999999999781e+00 9.114839999999999165e+00 7.899309999999999832e+00 1.800200000000000022e+00 8.063140000000000640e+00 1.125990000000000002e+01 1.963980000000000059e+00 7.059800000000000075e+00 9.559499999999999886e+00 3.405899999999999928e+00 4.404660000000000242e-01 9.386200000000000543e+00 7.555500000000000327e+00 4.024590000000000112e-01 2.363609999999999989e+00 1.012550000000000061e+01 3.785419999999999785e+00 4.928119999999999834e+00 6.631619999999999848e+00 1.795860000000000012e+00 4.255020000000000024e+00 8.579679999999999751e+00 2.783539999999999903e+00 1.142609999999999904e+00 9.854119999999999990e+00 8.191219999999999501e+00 2.197229999999999794e+00 1.043229999999999968e+01 6.115140000000000020e-01 2.418130000000000113e+00 6.438109999999999999e+00 7.127679999999999794e+00 4.209990000000000343e+00 7.863839999999999719e+00 9.751170000000000115e+00 6.256779999999999564e-01 9.404139999999999944e+00 4.052019999999999733e+00 9.265399999999999636e+00 8.270630000000000592e+00 7.150830000000000020e+00 8.991400000000000503e+00 6.371940000000000381e+00 9.145979999999999777e+00 1.211689999999999934e+01 1.203410000000000046e+01 3.168460000000000054e+00 5.670230000000000103e+00 1.199869999999999948e+01 8.017369999999999663e+00 7.077820000000000000e+00 7.908269999999999911e+00 6.368719999999999937e-01 9.814379999999999882e+00 1.096199999999999974e+01 1.017820000000000036e+01 9.578739999999999810e+00 9.737080000000000624e+00 9.009790000000000632e+00 5.282779999999999809e+00 1.008829999999999893e+00 3.475369999999999848e+00 1.964790000000000036e+00 8.104890000000000150e-01 1.326349999999999918e+00 5.139890000000000292e+00 2.033199999999999896e+00 4.295180000000000220e+00 3.244050000000000100e+00 3.249280000000000168e+00 2.296330000000000204e+00 1.271789999999999865e-01 4.122830000000000439e+00 1.039059999999999917e+01 3.144039999999999946e+00 1.301069999999999949e+00 5.667029999999999568e+00 4.365719999999999601e+00 1.179460000000000086e+01 9.658549999999999969e+00 8.664590000000000458e+00 5.148629999999999818e+00 6.367289999999999672e+00 1.292740000000000000e+00 5.188399999999999679e+00 5.597229999999999706e+00 8.333270000000000621e+00 5.572909999999999808e-01 2.048890000000000100e+00 1.151060000000000016e+01 1.636260000000000048e+00 3.366540000000000088e+00 9.539369999999999905e+00 5.029910000000000103e+00 1.345409999999999995e+00 7.382620000000000182e+00 4.486760000000000304e+00 1.160260000000000069e+01 9.393959999999999866e+00 1.990520000000000067e+00 4.501059999999999839e+00 1.183479999999999954e+01 3.044010000000000105e+00 9.426809999999999690e+00 2.186180000000000068e-01 4.108530000000000015e+00 7.231720000000000148e+00 4.681770000000000209e+00 2.587720000000000020e+00 5.310880000000000045e+00 1.172579999999999956e+01 7.444480000000000430e+00 2.155909999999999993e+00 7.455259999999999998e+00 7.758740000000000414e+00 4.924369999999999692e+00 2.652550000000000185e+00 9.456789999999999807e+00 8.212200000000000055e-02 1.248349999999999937e+01 1.153279999999999994e+01 9.688399999999999679e+00 2.374089999999999812e+00 6.800010000000000332e+00 7.868769999999999598e+00 5.708309999999999995e+00 5.353989999999999583e+00 1.007970000000000077e+01 4.522029999999999994e+00 9.900479999999999947e+00 6.473729999999999762e+00 3.388570000000000193e-01 1.213290000000000063e-01 5.159329999999999750e+00 6.099610000000000198e+00 8.968400000000000816e+00 1.440069999999999961e+00 1.232820000000000071e+01 7.641060000000000407e+00 6.776989999999999625e+00 9.834229999999999805e+00 9.293789999999999552e+00 2.962200000000000166e+00 8.572789999999999466e+00 1.091729999999999912e+01 1.077439999999999998e+01 6.613660000000000316e+00 8.396739999999999426e+00 8.909729999999999706e+00 1.106470000000000020e+01 8.114349999999999952e+00 1.159239999999999959e+01 5.967959999999999710e+00 1.186410000000000053e+01 7.921070000000000277e+00 6.440479999999999983e+00 1.054139999999999944e+01
6.700249999999999595e+00 2.635549999999999837e+00 1.208270000000000088e+01 3.395049999999999901e+00 9.345969999999999445e+00 8.218700000000000117e+00 2.997079999999999966e+00 3.581259999999999888e+00 3.048140000000000072e+00 4.249069999999999681e+00 6.296770000000000422e+00 3.230929999999999858e+00 1.091420000000000057e+00 1.794650000000000079e+00 5.318279999999999674e-01 9.379580000000000695e+00 3.345050000000000079e+00 1.228079999999999927e+01 6.665700000000000180e+00 6.337100000000000399e+00 7.399219999999999686e-01 4.269720000000000404e+00 1.154579999999999984e+01 3.446899999999999853e+00 6.453609999999999625e-01 1.021180000000000021e+01 1.054310000000000080e+01 3.577850000000000197e-01 1.208500000000000085e+01 1.861070000000000002e+00 7.165580000000000283e-01 7.402420000000000222e+00 3.059250000000000025e+00 3.013180000000000192e+00 1.241089999999999982e+01 5.395900000000000141e+00 8.411989999999999412e+00 9.004120000000000346e+00 1.359590000000000076e+00 1.165889999999999915e+01 1.492720000000000047e+00 9.502679999999999794e+00 8.075659999999999172e+00 1.324999999999999956e+00 5.853139999999999787e+00 1.043089999999999939e+01 1.000549999999999962e+01 2.614339999999999886e+00 3.422130000000000116e+00 5.168700000000000294e+00 5.427170000000000272e+00 6.311489999999999601e-01 1.813620000000000010e+00 7.000560000000000116e+00 8.956189999999999429e+00 5.777050000000000018e+00 2.974880000000000191e+00 4.016280000000000072e+00 8.375450000000000728e+00 1.789479999999999960e+00 5.237370000000000303e+00 3.984389999999999876e+00 1.823439999999999950e+00 2.972299999999999942e-02 4.991880000000000095e+00 3.015229999999999855e+00 2.154609999999999914e+00 5.299979999999999691e+00 7.615960000000000285e+00 8.313190000000000524e+00 1.078209999999999980e+01 3.472140000000000004e+00 1.166189999999999927e+01 7.721540000000000070e+00 1.133500000000000085e+01 1.011149999999999949e+01 8.087509999999999977e+00 4.133729999999999905e+00 5.160879999999999690e+00 1.126390000000000002e+00 9.860229999999999606e+00 9.553729999999999833e+00 4.048099999999999810e+00 6.355879999999999974e+00 2.653140000000000054e+00 1.166690000000000005e+01 8.816619999999999457e-01 1.123590000000000089e+01 5.854510000000000325e+00 9.856109999999999260e+00 9.235160000000000036e-01 1.030620000000000047e+01 8.151310000000000500e+00 7.935240000000000293e+00 6.161380000000000301e+00 7.486799999999999677e+00 7.806879999999999598e+00 5.075999999999999623e+00 1.074269999999999925e+01 2.330049999999999955e+00 8.822670000000000456e+00 1.220390000000000086e+01 6.061709999999999710e+00 9.884800000000000253e+00 3.178059999999999885e+00 9.789430000000000076e-01 3.947140000000000093e+00 9.455750000000000099e+00 7.352450000000000152e+00 1.257169999999999954e-01 9.261820000000000164e+00 9.999489999999999768e+00 2.629700000000000149e+00 3.910010000000000208e+00 1.325209999999999999e+00 1.547619999999999996e+00 3.617729999999999890e+00 6.528279999999999639e+00 3.896129999999999871e+00 6.143629999999999924e+00 5.555270000000000152e+00 8.472950000000000870e+00 1.209909999999999997e+01 1.034239999999999959e+01 1.112720000000000020e+01 1.211009999999999920e+01 2.518040000000000056e+00 9.491299999999999737e-02 9.059060000000000556e+00 9.071369999999999711e-01 4.156900000000000261e+00 5.527739999999999654e+00 2.206960000000000033e+00 9.767640000000000100e+00 3.873089999999999922e+00 5.457499999999999574e+00 1.148949999999999960e+01 6.459929999999999950e+00 7.554739999999999789e+00 7.491660000000000430e+00 4.953879999999999839e+00 1.016239999999999988e+01 7.215069999999999872e+00 5.805820000000000425e-01 5.020389999999999908e+00 8.115069999999999339e+00 6.696780000000000399e+00 3.948459999999999859e+00 3.812100000000000044e+00 1.195819999999999972e+01 5.214750000000000441e+00 1.079320000000000057e+01 9.826079999999999259e+00 6.180320000000000036e+00 1.305790000000000006e+00 3.297419999999999796e+00 1.180620000000000047e+01 1.134759999999999991e+01 5.405809999999999782e+00 3.238039999999999807e+00 6.535309999999999953e+00 9.720720000000000027e+00 8.828879999999999839e+00 2.117500000000000160e+00 8.263429999999999609e+00 9.020960000000000534e+00 9.250629999999999686e-01 1.593290000000000095e+00 1.499239999999999906e+00 7.868509999999999671e+00 6.079519999999999591e+00 5.232420000000000293e+00 1.215680000000000049e+01 3.753650000000000042e-01 9.979260000000000019e+00 1.008039999999999914e+01 9.003019999999999357e+00 8.324329999999999785e-01 4.492619999999999614e+00 7.178020000000000511e-01 1.065259999999999962e+01 6.487820000000000142e+00 7.200820000000000221e+00 8.410270000000000579e+00 1.128159999999999918e+01 6.181969999999999743e+00 7.532510000000000261e+00 8.121000000000000441e+00 9.295180000000000220e+00 3.330820000000000114e+00 2.469269999999999854e+00 5.501850000000000129e+00