-1.050010461585557096e+04
-1.049875776050100467e+04
-1.049905581669446292e+04
-1.049527398142329548e+04
-1.049768262758801029e+04
-1.049814011496258536e+04
-1.049735809677784164e+04
-1.049735579565006083e+04
-1.049743381599997156e+04
-1.049590804438977466e+04
-1.049769965344732918e+04
-1.049401522835592914e+04
-1.049515624605775338e+04
-1.049524874423996880e+04
-1.049740070068528439e+04
-1.049442092724338909e+04
-1.050009044363923385e+04
-1.049804673955353428e+04
-1.049569174620231024e+04
-1.049627508617912099e+04
-1.049733383674120705e+04
-1.049983959940392197e+04
-1.049719951816450885e+04
-1.049735240922072080e+04
-1.049846950746543735e+04
-1.049900229970593500e+04
-1.049709026488526433e+04
-1.049480041534908923e+04
-1.049572439142940311e+04
-1.049944968191602311e+04
-1.049561913771896434e+04
-1.049712033466163120e+04
-1.049489158750533352e+04
-1.049580584512302630e+04
-1.049918530989814462e+04
-1.049699114754464063e+04
-1.049789643577319112e+04
-1.049835286907633417e+04
-1.049629400785660800e+04
-1.049995498541227607e+04
-1.049497626396326450e+04
-1.049729477734161446e+04
-1.049574979753901425e+04
-1.049782605239094300e+04
-1.049583560802530519e+04
-1.049928036406806859e+04
-1.049517536861205735e+04
-1.049607383574471714e+04
-1.049825609969666584e+04
-1.049591736634281915e+04
-1.049740870118835846e+04
-1.049539707658241787e+04
-1.049522947736334208e+04
-1.050061865998255598e+04
-1.049785805037223690e+04
-1.049582032575266203e+04
-1.049453073534411487e+04
-1.049894147975427950e+04
-1.049520592853431481e+04
-1.049730506358020830e+04
-1.049652772425162220e+04
-1.049888909168687678e+04
-1.050140707544910765e+04
-1.049929730042249139e+04
-1.049472315078916836e+04
-1.049952382360759293e+04
-1.049952605124339607e+04
-1.050050510114119788e+04
-1.049582877274686507e+04
-1.049561997479896672e+04
-1.049425317914527477e+04
-1.049697451656483645e+04
-1.049932474632341655e+04
-1.049658100314701369e+04
-1.049529795047832340e+04
-1.049595098743310518e+04
-1.049536548896057866e+04
-1.049493512172304872e+04
-1.049576003091288658e+04
-1.049849106612162359e+04
-1.049509588809216984e+04
-1.049658918934163376e+04
-1.049538014311952247e+04
-1.049683657615733136e+04
-1.049940811857700464e+04
-1.049631604931489892e+04
-1.049599852726383142e+04
-1.049573223916667303e+04
-1.049604068671975438e+04
-1.050102918423376650e+04
-1.049997596807038826e+04
-1.049901595673966040e+04
-1.050105227538408872e+04
-1.049382287624902710e+04
-1.049318646526065277e+04
-1.049776325164124864e+04
-1.049971106792095452e+04
-1.049523277219815463e+04
-1.049699129240981711e+04
-1.049882520222243511e+04
-1.049769972512609638e+04
-1.049463124996379520e+04
-1.049822084132384589e+04
-1.049556816171549690e+04
-1.049472660279137381e+04
-1.049544944726231734e+04
-1.049514060374175824e+04
-1.049771344217448859e+04
-1.049792924988626146e+04
-1.049804758048967778e+04
-1.049276435419872905e+04
-1.049555725558595623e+04
-1.049613704420318936e+04
-1.049647922110419313e+04
-1.049733958592131239e+04
-1.049576314659330637e+04
-1.049776120725151668e+04
-1.049661821873748158e+04
-1.049864886379028030e+04
-1.049708740652710003e+04
-1.049525279666183815e+04
-1.049723022865797975e+04
-1.049597255637011222e+04
-1.049773027994511176e+04
-1.049719644105636144e+04
-1.049583225012988441e+04
-1.049866077311839581e+04
-1.049527770089195474e+04
-1.049521532234859296e+04
-1.049708820393148380e+04
-1.049443892846194831e+04
-1.049413404788363914e+04
-1.049568596773540776e+04
-1.049560378995209430e+04
-1.049555449471351858e+04
-1.049919734962035909e+04
-1.049599470194369678e+04
-1.049562260099213563e+04
-1.049866434138820478e+04
-1.049550803265506329e+04
-1.049367528896811746e+04
-1.049872147324908838e+04
-1.049397202981587179e+04
-1.049474857286537735e+04
-1.049908982160563573e+04
-1.049684683129134646e+04
-1.049549428355006239e+04
-1.049578258840478702e+04
-1.049337550736548110e+04
-1.049868629127007807e+04
-1.049515555867617331e+04
-1.049560597587141456e+04
-1.049539996895257900e+04
-1.049594385881219205e+04
-1.050092092303384015e+04
-1.049665798031891427e+04
-1.049789426036829718e+04
-1.049593081669072126e+04
-1.049787691284400535e+04
-1.049621687513763754e+04
-1.049698000771728221e+04
-1.049703050926295691e+04
-1.049588407896354329e+04
-1.049648726487267595e+04
-1.049532579133407489e+04
-1.049439987302160080e+04
-1.049996684609353542e+04
-1.049662064355221810e+04
-1.049807542720930905e+04
-1.049839235056042344e+04
-1.049807758768351596e+04
-1.049623664111207108e+04
-1.049640450183516259e+04
-1.049583973777205756e+04
-1.049549978198087410e+04
-1.049812085514390492e+04
-1.049401488770891592e+04
-1.050030101117459344e+04
-1.049612614210082938e+04
-1.049591148845161115e+04
-1.050030432893927900e+04
-1.050025579764357826e+04
-1.049704068101511075e+04
-1.049721861582635029e+04
-1.049586285502938881e+04
-1.049279926575732861e+04
-1.049395648818392146e+04
-1.049523806797279394e+04
-1.049577127130313238e+04
-1.049705321435593032e+04
-1.049510033786167696e+04
-1.049768676099971162e+04
-1.049714794546896155e+04
-1.049679832077818355e+04
-1.050018955805137739e+04
-1.049893021188452440e+04
-1.049546505206205620e+04
-1.049467609019756492e+04
-1.049560355255879404e+04
-1.049556183381521441e+04
