1.964435942233396237e-01 3.095335666845276390e-01 -8.651978103662258945e-01 4.968651713113582669e-01 3.298951610441759330e-01 -4.872780418510131994e-01 -3.653738135391613739e-01 -1.397338002802354096e-01 -1.789822042273657432e-01 9.039165670625433080e-01 1.570397413791988717e+00 5.416373332858982481e-01 -5.344356733367385814e-01 2.261816418504611903e+00 -1.858244239548572097e+00 -4.824417968083965363e-02 -4.876662784280653695e-01 1.066251906774796920e-01 1.677192297277981525e-01 -5.048037094259691937e-01 2.192081415956565194e-01 -4.739468719701161459e-01 -1.989709886289176277e-01 -1.587093643487759387e+00 4.557146652469882264e-01 -1.821554597465563363e-01 4.280475383705450998e-02 -9.198635772976977709e-02 -2.666861325350290413e-01 6.092424339767922303e-01 -7.998521951317122403e-01 -2.655836435003272600e-01 -4.939228008558715355e-01 7.200960609100333087e-01 9.459088523012634808e-02 -1.553789630044897785e-01 1.837717066145465594e+00 1.192087351817196605e+00 1.150105865211745529e-02 -1.544970746208547407e-01 -4.534706064095635897e-02 8.759923298701715044e-01 4.765894517972300570e-01 6.748477306303936329e-02 -1.048152883195319962e+00 3.050680747174800422e-01 -3.092301765117319579e-01 3.062178720503125895e-01 -1.810468000642722619e-01 -7.978549621975790096e-01 -8.946899062651301193e-01 2.311478304467481648e-01 1.843110212132383685e+00 5.884566075958617137e-01 -9.346350791684268078e-01 -9.282309754192775708e-01 3.138000552670465737e-01 1.593286916777847118e-01 7.000147167947471383e-01 -2.531641867997128093e-01 6.742430071673296554e-01 -8.906224210671398467e-01 -7.337722728349066470e-02 -1.953269641212618035e+00 -1.487764729355701032e+00 1.305784618844608058e+00 -3.950746830145996369e-01 -7.255072046190663704e-01 -5.356842010308877911e-02 -4.532638897155569779e-01 -5.122923044877051302e-01 -5.712014200732624669e-01 -1.378939188594504595e-01 -6.780847495079345144e-01 -4.056120922026167780e-02 -4.089699529286441315e-01 2.866517770081473127e-01 -3.703956922298785037e-01 -2.285710708605118852e-03 2.060451218613766899e-01 3.641638523924015103e-01 1.666884744712404443e+00 1.224836521198284345e+00 1.694101928535972634e+00 2.372675701864803421e-01 1.460578912990676326e+00 1.978386747975681426e-01 6.406047503137609622e-01 -1.513898450307946009e+00 -4.354713416326670417e-01 -8.738459729527997544e-01 4.720596822512002078e-01 -6.775299054461606518e-01 6.668963369999860724e-01 2.510358276044560299e-01 6.019322734743106640e-01 -1.207604473604118489e+00 6.334812519006436382e-01 1.283158911042892480e+00 -2.335440985912025647e-01 1.076063236430631620e-01 8.666222015164701808e-01 4.128127237105127523e-01 -7.933642734195703872e-01 1.692053273538653424e-01 4.440655110528959337e-01 6.299310726583016162e-01 -2.472862850231430709e+00 -3.996039383399975775e-01 2.616092322367031264e-01 7.346361634964265752e-02 1.085567576369247611e+00 -6.145923854306341028e-01 -2.427882428900988987e-01 -8.047398622375145916e-02 -9.137525793087071246e-01 -2.092626003549070413e-01 -5.449196035790426079e-03 2.838158502234550684e-01 2.896321997903914536e-01 1.253351083676027822e-01 -1.618123773296548107e-01 -2.626582423256917931e-01 1.302849961698599179e-01 -5.774049777759873159e-01 -4.088095160915046766e-01 -3.431774799650467167e-01 -6.180155521769074012e-01 8.754889078715833994e-01 -1.156242060011697159e+00 -1.514852843800672810e-01 9.068512242085521313e-01 -9.614023199391198704e-02 4.310264184908936258e-01 2.765221447811929134e-01 7.975885959102769762e-01 3.764496117287329802e-01 -3.651516702261990988e-01 7.807668963803332529e-02 7.376803496370211433e-02 -6.504222506171780660e-02 -6.118166224598691194e-01 -1.737566941664331621e-01 -3.002292585717040163e-01 -9.828561189208330218e-01 2.831627900209964244e-01 -6.082489597160440908e-01 7.027627118513918303e-01 1.794701996069981986e-01 2.427044249271061716e-01 -5.342248428776772418e-01 8.080056774704393874e-01 4.696896393589705121e-01 -7.839519789740567735e-01 6.393809052099409529e-01 -5.783706841226151640e-01 -4.029545999771789178e-01 3.600603717501812406e-01 -2.154584447481540724e-03 -1.868834099241038826e+00 1.395697638986729827e-01 -4.950936812346102278e-01 -5.375904169131823229e-01 -1.142875408907201962e+00 -4.039434462522402680e-01 1.796643693175874246e+00 -1.589784045833636084e+00 2.364700654085330367e+00 -2.285237625623810220e-01 6.112201265269149308e-01 7.139953473336799195e-02 1.316961718498655509e+00 1.383921986517200678e-02 2.850273540321105470e-01 6.965838367389961538e-01 3.024908009106118123e-01 1.224824694123751723e+00 9.114972076173816218e-02 -3.589949066009732181e-01 2.731899950867584526e-01 1.145678425571455133e-01 -2.350667058821316602e-01 -7.603363964560161392e-01 2.923724815375582931e-01 6.447359988701014677e-01 3.000713928377238826e-01 -6.595794916292905263e-01 -8.312232532194226975e-01 -7.127761302155466439e-01 1.811445019843251417e-02 -9.539440638946634632e-01 1.803140356638757991e-01
8.668741696260802154e-01 -2.738204295814153921e-01 -2.637298781224821087e-01 1.652144610300218530e-01 8.448763252158624226e-01 -4.059730750861805237e-01 -3.665899453335035862e-01 3.263552662144712513e-01 -1.775664005616733876e+00 -2.813969563711989363e-01 5.012278191520345150e-01 3.680770714008345101e-01 1.173670539887232023e+00 -1.053859189547039082e-01 1.669273299547380907e+00 4.806163135653035434e-02 -3.583834982696950666e-01 4.338788003358053924e-01 9.345198937468908174e-01 -3.977671422430038017e-01 3.455331246795844136e-01 -8.217209701633340080e-01 4.396360145300782230e-01 -1.680767673331284406e+00 9.979402669357311240e-01 -5.883280524378974308e-01 -3.910704469543279105e-01 9.191272133528782806e-01 -1.397070608073788522e-01 7.944662482336403153e-01 -5.564021502884132220e-01 4.961282931459068402e-01 -5.988968290844578490e-01 7.781217454500600761e-01 2.592690141411211902e-01 -1.090312290139393847e-01 1.310492308729260369e+00 2.425964385944161528e-01 9.368688535932144790e-01 -2.207780571847164641e-01 -4.497003407367867744e-01 5.086763050044855738e-01 -2.454519057631190659e-01 8.229021349547099851e-02 2.329419462312978112e-02 1.324634918767228164e+00 -2.394864322129440226e-01 4.282583688296065505e-01 1.421840615910348049e-01 -2.561183843297323293e-01 -4.413864215609200614e-01 -5.501718531128316769e-01 4.069908719828153387e+00 1.500042775382554483e+00 -7.785932857694731757e-01 -1.957941335653040349e-01 2.326169587919641180e-01 -1.398865238078969564e-01 1.057196481447792102e+00 -2.091536884250796646e+00 2.810447152383767744e+00 -2.458422506447618172e+00 2.727071933355078137e+00 -3.711559674340793258e+00 -2.943990250477074855e-01 -1.978789896951057559e+00 -3.474429401063018896e-01 1.758880358413547507e+00 -1.110118526216636203e+00 -1.065246091218884139e+00 -1.301954189357904079e+00 -1.326304078938236541e+00 -1.870775796346931530e-01 -5.124563408692675015e-01 2.619110797476033592e-01 -3.499950171022090384e-01 3.744534072358634558e-01 -2.683203257030710841e-03 -1.041210390444616385e+00 1.389547046009086184e+00 -5.295886296608529609e-01 1.080696878544296746e+00 5.454672485519704850e-01 3.776266627550540766e-01 2.284867386768873188e-01 3.304021825871871210e-01 -4.921430832490139018e-01 2.602450049003861010e-01 -1.733075738665690979e+00 -7.124172042145102690e-01 -1.401597806516658995e+00 9.837626898947972043e-01 -1.028483429806151372e+00 7.003957542829534200e-01 6.615294162652929355e-01 8.329741744708963891e-01 -4.866476073563562599e-01 3.444064672751853129e-01 8.501604564288265387e-01 5.971849886010053288e-01 2.502716957455162761e-01 -1.646225930827542594e-02 1.167926695429387651e+00 -3.832849408997576202e+00 7.688940562113831811e-01 -3.432453570884518301e-01 -3.457223578721078106e-01 -2.112037832401678639e+00 -1.116472236343863500e+00 5.814585790169175539e-01 -6.925826860025156018e-01 1.779964946981587248e+00 -3.069850892330435177e-01 1.204733065595828156e+00 -1.130771169453915993e-03 -4.528432572386978383e-01 -7.100708154713460951e-01 -1.976268158972429856e-01 4.102061393276287271e-01 -2.789132707193287680e-02 -7.143707283949356224e-02 4.172998129440984028e-01 2.801833956800160036e-02 2.620956849544400780e-01 -5.768218515794614198e-01 -7.015074992890286687e-01 -1.279267803521629554e-01 -2.869633947110527550e-01 2.888032761318377051e-01 -7.160548009642678791e-01 7.172709327586102024e-02 1.426633152199257015e+00 -4.135485734347003617e-01 1.113926329995538866e+00 2.101100359562076414e-01 3.727245974715596710e-01 1.120805573608524008e-01 3.573473436965028671e-02 -6.150582693230968179e-01 8.802840152636515203e-02 5.748518723388165164e-01 -4.953487346680113777e-03 2.078107498229214922e+00 1.735789280940001289e+00 -1.841467791434232115e+00 3.741006518824094990e-02 -5.429341977194421798e-01 4.897900096376354290e-02 5.118089370937593807e-02 1.000930459909980530e-01 2.779969295533593066e-01 7.979377517193080305e-01 -1.094266132577743633e+00 -8.245682098019270490e-02 3.284702556732997936e-01 -2.780797190750883274e-01 -6.847773310315555251e-02 -1.958594395855498826e-01 1.246229127924806251e-01 -1.686827249257089045e+00 1.892614746581905427e-01 -2.312486176905921287e-01 -1.122387830492748373e+00 -1.729736389882410519e+00 -8.730535589591078560e-01 4.619578179383660999e-01 -6.426472346634977129e-01 8.636268663359021325e-01 6.830906873590641103e-03 7.103562079220268055e-01 1.764681795582160040e-01 1.822532130886723722e+00 -8.992690409918181749e-02 1.730285577517234052e-01 1.269719754829305547e+00 -7.533933894846805979e-01 1.394592578848868669e+00 -3.060044704880918731e-01 -3.667400977580058674e-01 6.356075542133730882e-02 1.385012134256737859e-01 -1.085375772073564893e-01 -1.875933429284458998e-01 4.464628076386140676e-01 -8.311810871276104074e-02 1.796715169843702498e+00 -9.297720946529536290e-01 -1.073571837469283752e+00 -7.302030674291860590e-01 -1.966657375363019267e-01 -1.794900999454510648e+00 -1.202180988599921146e-01
1.319260798943688862e+00 5.003125064273287181e-01 -1.097125713511501177e-01 -3.922629245996046843e-02 -9.139520969138678064e-01 1.388615278224160754e+00 8.707724762361893633e-01 -6.059833036120814559e-02 5.894763071088344741e-01 2.734147095028800489e-01 5.285684159272483473e-01 -9.652425196178292532e-01 2.460648567562927769e-01 -4.028558696158623942e-01 8.676778964736729938e-01 -2.182043829222713338e+00 5.369941266684808312e+00 4.622843994616586905e+00 5.562638249384436184e-01 6.668207465671033285e-02 1.933814103606301960e-01 -1.811918102824559840e-01 -1.186430410646135969e-01 1.383947697548793265e-01 -2.597054331913783987e+00 1.529708677855026622e+00 -9.909401814742595516e-01 5.415936245321903986e-01 1.295790740864463997e+00 8.615267892753974976e-01 9.492266038180058318e-01 -5.860911926893187518e-01 -8.528035504765725250e-01 -6.984555998389561926e-02 -1.056456003737917815e-01 -6.567883020395698379e-01 -7.238802105398702835e-01 5.647407520546090520e-01 -3.909434344582591314e-01 -8.619314809126690791e-02 -7.072611139388784718e-01 -7.060640083079149365e-01 1.613115264342259436e-01 4.775201911408915589e-01 -7.648872490479521336e-01 -7.995770870936685926e-02 7.886992638473621087e-01 -1.571401686686005883e-01 3.008411811236140765e-01 -1.923390851398557033e-01 3.591208906557782354e-01 -3.721928933382193105e-01 7.718256280336009967e-01 2.311894823179285463e-01 -6.193643528942687215e-01 1.141323491040256766e+00 1.199068411115289612e+00 6.983645827871175493e-01 -1.385047615480335947e+00 -1.090379138821535171e-01 2.610621014844071719e-01 1.259075901970493794e+00 1.452643460199856351e+00 -5.134930096630916374e-01 7.067638625878726044e-01 6.342695521292807115e-01 -5.791682403226257048e-01 3.602012682033101099e-02 -8.358347838459176393e-02 4.421592951706013741e-01 4.023550187204334438e-01 2.663945694367659822e-01 -5.509447267225130451e-01 -2.985287309421523760e-01 -1.756533969670383222e+00 2.300880217244905268e-01 -1.981852595034398756e-01 -7.061293143281608398e-01 2.934117214345416946e-01 8.574937568597416904e-02 -3.704419720867456745e-01 -2.316162854423700068e-01 3.868718354952140892e-01 2.660819232925968336e-01 4.851784790111403067e-01 1.280342524642210655e+00 4.048309910628257180e-01 -4.260076251239677259e-01 4.904430698400940036e-01 -1.288907383486423752e+00 9.919933053283029600e-02 -9.502087652248529803e-01 2.375056543390301478e-01 -6.893271551822278687e-01 -1.013128287518264559e+00 8.445991602952912514e-01 -1.846499440316954344e-01 -5.776420334872734985e-01 7.213831551515719198e-01 3.683686344990975137e-01 -1.372553082567470328e+00 -3.618966536265432188e-01 1.027048754243270023e+00 -2.427352781650176372e-01 -3.339791013023856170e-01 -1.074006868123834613e+00 8.015470663343134960e-01 2.346228306327124979e+00 -1.364445880085610074e+00 -3.778436638616977650e-01 -1.038770413546453941e+00 -1.693335739794505246e+00 8.202359009785306077e-01 -3.533040268682098861e-01 -6.254213577169143168e-01 -3.106370841604931266e-01 -2.501359414987059937e-01 8.759671330592104788e-01 -4.010458129917250647e-02 -8.241167240871565269e-01 -5.459223338111640622e-01 -8.470226821332340617e-01 -3.899535597419340749e-01 -6.356795451018330823e-02 6.796839756730103099e-01 -7.700073438793539893e-01 3.646487624482427914e-01 1.090199161600385186e-02 2.749445158826551161e-01 -2.998009127853670241e-01 -5.318712550456669019e-01 -1.853328290308017823e-01 -6.774651136465466017e-01 -3.846267482165257046e-01 -3.748257029733280676e-01 -1.884532226690374346e+00 -1.759776130754242829e-01 -1.821778797661052884e+00 4.524725041631288414e-01 2.168010748179331482e-01 9.301891275853897689e-02 6.552219859949328651e-01 6.360204733807542921e-01 -2.668650813149153062e-02 1.391921202666370316e+00 -2.269808949785567798e+00 -5.446434670997352123e-01 -5.053945489319731088e-01 -1.272510944419026069e-01 2.181879278620518781e-01 -7.458667420961874461e-02 5.272113876797772658e-01 1.031176917475819382e-01 1.396875204233682666e-01 -2.675597933885542901e-01 1.960363314829087489e-01 1.732853081132097017e+00 -2.896234580396498948e-01 1.271127690919330089e+00 9.052293723356745758e-01 -5.361778528374706865e-02 9.434647616380463786e-01 -3.131238551361543720e-01 -2.524545623277499873e-01 -2.242685868337629396e-01 1.222668567014374208e+00 -2.347198126438807542e+00 1.845750220856338775e+00 5.953070548534629136e-01 4.162477175313186173e-01 3.421999465438861909e-01 5.670043512760443161e-01 2.319412728817037972e-01 -5.252660910294615348e-02 2.577577197040929469e-01 -7.772213451236782422e-01 7.286146398973793181e-02 -3.105378395785446735e-02 8.083034112162848506e-02 1.650648228261514293e-03 1.704969467369641833e+00 -4.145259011676080796e+00 -4.666660220436503970e+00 -5.925621451206092988e-02 -4.936111831529660932e-01 -8.536833819776801224e-01 6.330657616301029744e-01 -1.282802556145015371e+00 -6.786092545524288200e-01 -1.284687174760771988e+00 1.996813844318283238e+00 6.712384160153881396e-01
-3.785589447606111518e-02 -1.070831041501484782e+00 -7.892145129204829468e-01 7.787814905207328664e-01 -1.601884685742498871e+00 1.932024615807438894e-01 -1.110444027876601902e+00 6.932300897780236948e-01 -8.910502526328449857e-01 -1.690570261236377547e+00 -1.013163768741862647e-01 2.236216972788866442e-01 -3.006534905929861834e-01 1.447519765824031523e+00 -8.728463280444692662e-01 -7.404268020317702481e-01 1.760981978135948145e+00 9.501270041443877767e-01 3.197279907110960884e-01 -2.175098251148218420e+00 1.020819485508952074e+00 -2.541818294301582126e-01 2.064605092877909165e+00 -7.214073235212692392e-01 1.772036693279613218e+00 1.433755107950479002e-01 1.321577877110837185e-01 -3.175734062636145216e-01 3.815506803967561034e-01 -3.027098588997830242e-01 6.651521006167266936e-01 -5.169238897188427329e-01 -2.190250790507153877e-01 1.092801117997582588e-01 -4.637807300782997855e-02 8.559202417262588014e-01 -5.124465706772623336e-02 1.576050755418626492e+00 1.904776064525327481e-02 -1.585815290996962501e-01 3.066796421777203130e-01 -5.796603494673129714e-02 -9.827213931152862791e-01 -2.121278377156151640e-01 9.844147216559918645e-01 -3.339647031246936182e-01 1.638692598570835046e-01 -2.346213908149433203e-01 -5.823101283832730068e-01 -3.576877577547922793e-01 8.620888324260173041e-01 2.260990580169849107e+00 8.134949827155149027e-01 9.784363925900205761e-01 1.824141127243804894e-01 -1.156713600331110148e-01 2.406789098582207687e-01 1.152569496258973203e+00 -5.936183542984440065e-01 -4.213698692452478300e-01 4.077723330770487986e-01 3.090615121444827418e-01 7.596853931360849632e-01 4.321998699727916948e-01 3.263485813462570495e-01 4.631425822741649934e-01 3.978072514522886793e-01 8.858334843226540745e-01 -1.119190920824492536e-01 -7.693568547800547774e-01 -1.565493291625967009e-01 -1.005074049761485622e+00 -7.810414901977451585e-01 1.729550242013678518e-01 -2.634223741846314915e-01 -4.115482551767759012e-01 8.727352563879882397e-02 -1.864060074894876851e-01 -2.557802328422230431e+00 1.106806945347476256e+00 -2.015012626700340093e+00 -4.341899038180790371e-01 3.403076146186518325e-01 -3.848898749138470521e+00 -9.348993885732014286e-01 -5.133608549607043825e-01 -8.292928689674308185e-01 1.315227252307401007e-01 6.633425582132214116e-01 -2.805824308903371311e-01 1.194127779284405833e+00 -6.323936752642655978e-02 8.602623207416607576e-01 -3.262997818082938650e+00 1.519122417706983086e+00 -9.906151940349257057e-01 -9.479863036539664112e-01 -1.115690106762808886e+00 2.304798578459656966e-01 -1.021643266961187457e-01 -1.642780652594099389e-01 -8.971329684870834598e-01 4.848462924829605170e-01 1.017389119673832942e+00 3.215071940973218134e-01 -4.890485034864974212e-01 -1.199641252899178445e+00 -4.810852827815573218e-01 -1.144470521307222821e+00 -1.169383996700070621e-01 4.664958150145057103e-02 2.046952927027516633e-01 -3.398936670100067836e-01 -4.097407696557979762e-01 2.627829922509803406e+00 -1.095783083441722150e+00 1.908889829580185049e+00 4.156213968017166138e-01 1.483593371590075649e-01 -1.328118763548060133e-01 -6.131001171569846336e-02 1.051782766635599886e+00 2.721353285708194014e-01 3.746734936662983184e-01 5.549407352526751769e-01 1.215920963883144607e-01 4.758875406347450876e-01 3.348383639782189780e-01 -1.908874402961229233e+00 -2.211618714643346806e+00 -2.605803795964833469e+00 -8.845808428634499565e-01 -2.762177775891967002e+00 -1.311992804533019585e+00 3.100483015370166795e-01 -2.937696704163774264e+00 -2.143976075846327489e-01 -3.173818076561845558e+00 -3.093741582886519459e-01 -4.701107860564615604e-02 -1.770045116772430427e-01 -4.304957427988171381e-01 3.670645709767078047e-01 1.473173204706121897e+00 -5.001129888221681474e-01 -1.087757127819695357e+00 6.737879219081359672e-01 -6.984710264579120642e-02 3.741623583582322915e-02 5.523058687350389517e-01 -1.382030683033229845e+00 6.482075023557692939e-01 -3.672090669742596458e-01 1.648323436784888241e+00 5.188589019565212346e-02 8.736325713905789270e-01 1.471771953484311224e+00 -7.759692178851059774e-01 8.085826330193832678e-01 1.817123558280850038e+00 7.606516137033445535e-01 -2.121950463521989239e+00 1.040630349571881386e+00 -1.207583904778844364e+00 3.112084347045496191e+00 3.584362573065236202e+00 1.311023498641968876e+00 2.060342718060445222e+00 5.757646139603630475e-01 -7.380819559505017446e-01 -4.060106131923061357e-01 1.992438340961810272e+00 -2.500892502653333960e+00 -2.245277540322189402e+00 4.600896543828290608e-01 7.134446170369609375e-01 2.804631317037462601e-01 -6.839952014505008560e-01 -5.612450801992440175e-01 4.893508652180293961e-01 -1.703561531279617070e-01 6.522791013188142806e-01 1.721388532144841443e+00 5.559316384102639397e-01 1.157690619531638737e-01 1.028169755220718518e+00 1.868156356448251065e+00 -6.382002546391968290e-01 1.865228898391088297e+00 5.121802043899602586e-01 7.176442569373384650e-01 5.547196203809765525e-01
1.461193920866377116e-01 1.615167004663369821e-01 4.806008869463478383e-01 4.503955670310577086e-01 -3.096101855586743112e-01 1.856979256794203670e-01 -1.444947120002850083e+00 -9.236996632113522177e-01 -1.782477428988841428e+00 2.444204820197399375e+00 -3.271566790692205906e+00 -1.135199637535469819e+00 5.066394770816993187e-01 -1.581674786469248417e+00 -3.354945095044687409e-01 -3.248146612014271573e-01 1.396026740191118054e-01 8.656492960809963888e-02 5.385592085836012899e-01 -1.358649070902684386e+00 -1.771149148469027823e+00 7.370792257183801377e-01 4.594566487850129111e-01 -4.491449824543810032e-01 -8.744836065363024991e-02 -6.377431124974759502e-01 -4.906472154309412526e-01 -6.806615090941707802e-01 -3.555732825165955346e-02 -6.169058640533596760e-01 -3.060954875399305997e-01 1.343154574823564040e-01 7.758226650050266127e-01 2.164431772581605351e-01 -1.312393896625868306e-01 -2.209215247410045990e-01 1.051853729082795896e-01 4.185221153860229637e-01 5.886741229231372552e-01 9.122963064792877219e-01 2.141538670051324200e-01 -2.821821712760447798e-01 -2.129032824284557979e-01 -1.242442407191809872e+00 4.070313411465426023e-02 -1.045273247656919757e+00 1.180446939373845927e+00 -1.275061478753037637e-02 -8.224187675607641523e-02 3.547633850214205742e-01 -1.013818371606216795e+00 -8.549601918065815598e-01 3.159526856761270874e+00 5.558745599201276866e-01 1.382122214305700481e-01 -4.117364599280357203e-03 -8.664345109858421212e-01 -6.604366974225964748e-01 -7.645026120153229909e-01 2.022614864521716793e-01 -7.022330646005791044e-01 5.481962174452365000e-01 4.044952049902230118e-01 1.603175379528460343e-01 1.954182382834164511e-01 3.466047604763746737e-01 6.125252184905684016e-01 3.226533918857314998e-01 -5.380002507567726022e-01 1.258566309324323340e+00 1.588022840169525107e+00 2.848062391604119434e-02 6.786272522745437907e-01 5.920849483742458563e-01 4.203296009070008332e-01 -3.451274046010490704e-01 4.414548129049570280e-01 -3.052254262308283228e-01 8.646157126109633995e-02 -5.486060512888266683e-01 -2.542558772011456192e-01 8.811787591630829697e-01 5.975737393986892965e-01 -6.582548592816264144e-01 1.534604058270306881e-01 -3.623728219316429411e-01 -3.961782004905651799e-01 -5.567173675357416363e-01 1.959046910011533194e-01 1.290642363898309719e-01 5.395084598700096157e-01 -1.589712569165807832e+00 8.789079608528016507e-01 9.406756289308529917e-01 1.922740876519889675e+00 -1.169150026312575807e+00 -2.797051704923888410e-02 1.506944130482709698e-01 -4.844467430520076334e-01 -3.101259488524271135e-01 -2.689831560975349811e-01 8.767605754941661944e-01 -5.198703739393842893e-01 4.941156335928179044e-01 4.180891416139991823e-01 -3.644272876221018809e+00 2.445576246622562344e+00 3.889444017519144037e+00 -2.052100275552406691e-02 -1.830408962525511996e+00 3.910838166907562030e-01 1.395599937066676899e-01 9.133072642415187778e-03 8.831621081401559437e-01 -6.973654520994190809e-02 -1.739963209808786104e-01 -5.734948440913455459e-01 -5.714029945609505612e-01 2.343102873326697311e-01 4.412578664029557785e-01 1.318303834347802406e+00 -1.182208659258588701e-01 8.729270606836709856e-01 -6.453561489521212335e-01 -5.458565135702863058e-01 -2.867677851826942792e+00 5.772759083973912908e-01 -3.959077204382082660e-01 4.067500624609167170e-01 -5.517978187507641685e-01 -5.192167995162938476e-01 -2.000318257924389373e-03 -7.110894865430550382e-01 -6.031648603288722876e-01 -8.857758916118860792e-01 5.567690467092432982e+00 -5.344084196432501432e-01 -9.244005459325735918e-01 -6.743376237635912984e-01 -4.933957247082178532e-01 7.214525749368726482e-01 -2.650579557483796478e+00 1.346088203528309046e+00 1.189736335088345642e+00 -1.729941049693889746e-02 3.069778901441975183e-01 -1.436794151884754622e-01 -6.762258419237707208e-02 -1.099191337789671596e+00 5.304628047350101738e-01 3.108684834448288692e-01 -8.904100479461828366e-01 8.200975756285610041e-01 5.473451822995127891e-01 -3.311765988587640486e-01 4.740600005091245572e-01 1.605396812658083650e-01 1.145848118379968195e-01 2.914592256953800198e-01 -2.428926296783658900e-01 -2.444224360581409849e-01 8.185687976900495322e-01 -9.123502996456327452e-01 -3.117365392934669188e+00 7.043326274404518861e-01 -8.498884337145741485e-02 7.981892056082861009e-01 1.218553773518253336e-01 2.442548001321555307e-01 5.472572505714652369e-01 -1.265856929442794321e-01 2.847368193751111942e-01 -2.209091834458400648e-03 -7.363022383436439167e-02 -1.528140819148493978e+00 -6.261222404381355799e-01 1.325273580791994643e+00 4.008221270168672024e-01 -9.991615409363918676e-02 -1.747851354301475091e-01 -5.926742452183542120e-01 3.185957797238729405e+00 9.508402281607736262e-02 1.756335994727118432e-01 4.222841535286899206e-01 -2.984071691847813401e+00 5.004570024248806703e-01 1.281904726921792914e+00 -3.744914595626209347e-02 -5.866568353843616412e-01 6.931858668036839921e-01 1.180778097460762011e+00
-4.128955132322417176e-01 1.159948048105491625e-01 1.494170889987377591e-02 -4.951168211630438409e-01 -4.125453289819470126e-01 8.972491823498832675e-01 1.950109755429855485e-01 8.321570778868752072e-01 -1.197389480752276025e+00 2.381443163637967930e-01 -3.623928765362854354e-01 -2.361208581774388304e-01 2.148100125313821551e-01 -4.696119920435601336e-02 -6.282860808569906697e-01 4.034173985458504030e-01 1.284245459238006482e-01 1.100313881429015733e-01 5.998872180214147587e-01 -9.073808714593650793e-01 4.606990058315797998e-01 -6.807952064584535945e-01 1.986641017558252731e+00 -8.222547311792017810e-01 -6.402010871177530316e-01 5.506788746558428926e-02 1.077507682185518512e+00 -1.151672181256382377e+00 -5.409616473756378996e-01 2.268139789614559421e-01 9.633615005464958581e-02 4.097798504238191475e-01 2.781388544477518820e-01 -5.783994804779992727e-01 -1.969832173544105558e+00 1.014832928912871024e+00 -9.822385399419725216e-01 -4.795261658257663623e-02 -6.189560617125741127e-01 -3.391413622255998184e-01 -4.085611475263176140e-01 3.933463874709277053e-01 -5.620596056801058227e-01 1.632468986263467814e+00 -1.509793941224462088e+00 1.380161491036428822e+00 7.156871332124900009e-01 -9.611194985915984257e-02 1.477190296282190340e+00 1.563172613914395770e+00 -1.890341891389096807e-01 -3.324744917335716032e-02 -1.287092184655967975e+00 3.583706427538986550e-02 5.612718196721005852e-03 -1.217201373256469182e-01 4.257335455271878122e-02 -4.033685475858239666e-01 -3.031680294827677757e-01 1.425247841817033789e+00 9.534874359735745486e-01 2.635000215000419810e-01 3.938760347217406532e-01 -1.160366623699823352e+00 5.874045121830819699e-02 1.265588506272964819e+00 7.464118159659559604e-01 1.544665299153224369e+00 3.080109593935985712e-01 1.181615762870057207e+00 2.057627118903607499e+00 9.320089544015321970e-01 3.305646763068540217e+00 1.940127704524244212e+00 -3.099239115661704513e+00 2.474095437085992444e-01 -6.250485477588177963e-01 3.457624670813926882e-01 -1.535878296996048942e+00 1.459579782302977691e+00 9.160182354126699122e-01 -8.863209654816546490e-02 2.066652719433964558e-02 -4.555999940460840891e-01 7.032553352167111305e-01 -4.618673151071592264e-01 -8.986725450588638198e-02 -1.561417578897867031e+00 7.718965904807971977e-03 -3.951117069000933957e-01 -1.763468234890977482e-02 3.240443586949051102e-01 -1.639089062677997033e+00 -5.977629725912126935e-01 9.133946817489345393e-02 -4.443904984922296686e-01 -2.758269184869220347e-01 -1.142695945906683774e-01 2.463173390865346923e-01 -5.116695833025260987e-01 9.878641136544899504e-02 3.030559293850228555e-02 -2.767823404209126537e-01 -2.285708651722591078e+00 -2.897988072751131461e-01 5.906240475591396644e-01 -1.830040266332470411e+00 1.148988463778719771e+00 1.581914927504325608e+00 -1.447260598625575545e+00 4.325371987072900715e-01 -5.580317154707685745e-01 3.359048575686907623e-01 3.412558374637964520e-01 -1.447761963741636126e+00 -1.124856089525662961e+00 -1.551472037657117387e+00 -1.248409423403880752e-01 2.066159067627381385e-01 -5.887826234764591271e-02 1.094407543251504356e+00 -9.174056026774206341e-02 -1.185867853274884087e+00 -7.090793980931253682e-02 1.783054898758416884e-01 -3.343570534668006689e-01 -1.069881790215076789e+00 7.143481026871340012e-01 -2.076793150294187762e-01 -2.386542175423463696e+00 8.872162236017179238e-01 -5.058444919848481547e-01 -1.407966943262841664e-01 -2.359851039306285481e-01 -5.359361691404977979e-01 -4.651552418272539846e-01 3.184619795154636918e-02 7.193329574923573722e-02 1.200190954754633797e-02 -7.296451380436210776e-01 4.306952604039776533e-01 -2.272700926619132478e+00 -1.835773826377677720e+00 2.628151824625346134e+00 4.196518581142131277e-01 -7.328585027720965206e-01 -6.483237162185688796e-01 -1.432310147974960035e-01 -1.744694039621872139e-01 -6.310057937788832172e-01 -6.842625961790665956e-01 -1.332266467164620494e+00 4.831277671312939059e-01 -1.789395239149215722e-01 2.192935022205448059e-01 9.506088288764379113e-02 -4.849141696063657969e-01 2.993622825863928583e-01 7.863374484852421187e-01 2.926285634122232082e-01 1.023747457786746917e+00 -1.352523674736001713e-01 1.956473749969720233e+00 1.891714860476155557e+00 4.865756164678962659e-01 -1.455254672568427055e-01 -2.406310873394580940e-01 -6.782364445943324383e-02 -1.961905976724659106e-01 -6.810204350952070440e-01 -2.165727608573885243e-01 2.165125970434612357e-01 5.530910836398849062e-01 -3.463713043095115740e-01 -3.706661722822353622e-01 -5.233660457947494349e-01 -8.706166673847366699e-02 3.626314749094671219e-01 -2.893833170045725933e-01 -1.454136756914769402e+00 2.851564234107066831e-01 5.317488705352848566e-01 4.229618963214776955e-02 1.221448321454977393e+00 -1.993253380663304153e+00 5.548903416307531672e-02 3.702234283182063296e-02 5.763791076154323179e-01 7.672686047940826398e-03 3.227120130377632012e+00 4.035634372052978591e-01 2.254141161353511613e+00