7.922200000000000075e-02 6.955829999999999513e-01 2.326249999999999929e+00 3.445050000000000168e+00 4.709329999999999572e+00 1.451149999999999940e+00 1.682649999999999979e+00 5.039299999999999891e+00 4.652099999999999902e+00 4.103550000000000253e+00 1.554640000000000022e+00 3.963150000000000173e+00 7.300169999999999604e+00 1.673820000000000086e+00 1.569879999999999942e+00 9.126049999999999329e+00 5.273220000000000240e+00 1.486909999999999954e+00 8.128429999999999822e+00 4.939530000000000420e+00 4.311639999999999695e+00 1.058730000000000082e+01 1.914690000000000003e+00 4.476029999999999731e+00 1.253270000000000106e+00 7.430419999999999803e+00 2.135740000000000194e+00 5.141700000000000159e+00 1.083730000000000082e+01 1.359259999999999913e+00 1.694160000000000110e+00 1.098639999999999972e+01 4.374579999999999913e+00 5.290510000000000268e+00 7.514820000000000277e+00 4.681400000000000006e+00 7.234930000000000305e+00 6.940979999999999706e+00 5.846550000000000358e-01 1.074200000000000088e+01 1.110549999999999926e+01 1.633860000000000090e+00 7.588770000000000238e+00 1.100919999999999987e+01 4.825020000000000309e+00 1.155680000000000085e+01 8.183980000000000032e+00 5.159419999999999895e+00 1.349879999999999969e+00 1.288300000000000001e+00 7.650319999999999787e+00 4.302109999999999879e+00 4.465329999999999799e+00 7.773900000000000254e+00 1.365099999999999980e+00 4.924789999999999779e+00 1.090620000000000012e+01 3.607380000000000031e+00 1.574910000000000032e+00 9.967879999999999185e+00 7.613170000000000215e+00 1.382290000000000019e+00 7.557549999999999990e+00 1.111909999999999954e+01 5.071930000000000049e+00 6.852549999999999919e+00 7.678709999999999702e+00 4.910980000000000345e+00 1.134730000000000061e+01 1.010219999999999985e+01 1.297090000000000076e+00 1.118769999999999953e+01 1.069220000000000059e+00 7.345500000000000362e+00 8.689460000000000406e+00 5.264529999999999710e+00 1.019769999999999932e+01 7.908739999999999881e+00 1.800689999999999902e+00 1.074329999999999963e+01 1.055230000000000068e+01 5.120300000000000296e+00 7.481819999999999915e+00 1.071490000000000009e+01 7.908689999999999998e+00 7.390640000000000320e+00 8.031100000000000350e+00 1.094699999999999918e+01 1.090620000000000012e+01 7.659460000000000157e+00 8.012809999999999988e+00 1.063940000000000019e+01 1.072530000000000072e+01 1.155250000000000021e+01 6.922889999999999766e+00 1.172809999999999953e+01 3.622360000000000024e+00 1.691019999999999968e+00 7.964050000000000296e-01 6.506560000000000121e-01 4.916529999999999845e+00 1.698269999999999946e+00 4.552579999999999849e+00 4.893889999999999851e+00 4.979879999999999640e+00 1.214660000000000073e+00 2.066860000000000142e+00 4.584200000000000053e+00 1.012059999999999960e+01 2.203349999999999920e+00 1.316330000000000000e+00 6.515920000000000378e+00 4.225039999999999907e+00 1.672840000000000105e+00 1.106189999999999962e+01 4.770340000000000025e+00 4.160569999999999879e+00 7.186239999999999739e+00 2.181979999999999809e+00 4.267420000000000435e+00 4.291319999999999801e+00 7.565579999999999750e+00 1.836170000000000080e+00 2.149970000000000159e+00 1.046369999999999933e+01 1.356489999999999974e+00 4.804090000000000416e+00 1.017489999999999917e+01 5.111299999999999955e+00 1.893680000000000030e+00 7.586990000000000123e+00 4.818410000000000082e+00 1.035239999999999938e+01 8.017720000000000624e+00 1.825339999999999963e+00 8.186049999999999827e+00 1.054800000000000004e+01 1.594549999999999912e+00 1.129679999999999929e+01 1.057869999999999955e+01 5.035779999999999923e+00 8.013669999999999405e+00 7.325569999999999915e+00 4.704670000000000130e+00 4.341359999999999886e+00 1.411890000000000089e+00 7.190800000000000303e+00 1.419929999999999914e+00 4.641370000000000218e+00 7.595150000000000290e+00 4.460270000000000401e+00 4.375829999999999664e+00 1.119769999999999932e+01 1.124179999999999957e+00 1.827450000000000019e+00 1.051640000000000086e+01 1.087560000000000038e+01 1.816999999999999948e+00 7.037300000000000111e+00 7.645660000000000345e+00 4.251780000000000115e+00 7.324980000000000047e+00 1.024799999999999933e+01 4.066379999999999661e+00 1.078999999999999915e+01 7.036159999999999748e+00 1.416879999999999917e+00 1.085330000000000084e+01 5.203700000000000436e+00 7.203990000000000116e+00 8.134449999999999292e+00 2.031010000000000204e+00 9.836080000000000823e+00 7.760559999999999903e+00 4.590029999999999610e+00 1.024830000000000041e+01 1.044469999999999921e+01 1.373390000000000111e+00 7.765930000000000000e+00 1.136700000000000088e+01 1.076149999999999984e+01 7.617449999999999832e+00 7.572879999999999612e+00 8.256230000000000402e+00 1.023140000000000072e+01 7.409740000000000215e+00 1.058919999999999995e+01 1.013530000000000086e+01 1.121400000000000041e+01 8.906560000000000699e+00 7.569630000000000081e+00 1.038990000000000080e+01
1.103259999999999907e+00 1.536659999999999915e+00 1.516590000000000105e+00 3.967620000000000147e+00 4.406089999999999840e+00 1.312929999999999930e+00 1.431959999999999900e+00 5.170609999999999928e+00 4.728189999999999671e+00 4.004879999999999995e+00 1.655810000000000004e+00 3.989310000000000134e+00 6.779349999999999987e+00 1.457289999999999974e+00 1.429769999999999985e+00 9.888830000000000453e+00 4.132769999999999833e+00 1.134700000000000042e+00 8.050589999999999691e+00 3.980059999999999931e+00 4.692099999999999937e+00 1.044549999999999912e+01 1.633119999999999905e+00 3.848749999999999893e+00 1.764979999999999993e+00 7.621610000000000440e+00 2.113170000000000215e+00 4.089769999999999683e+00 1.037700000000000067e+01 1.508760000000000101e+00 1.857499999999999929e+00 1.095420000000000016e+01 4.455429999999999779e+00 4.463680000000000092e+00 8.080040000000000333e+00 4.501240000000000130e+00 7.816340000000000288e+00 7.895690000000000097e+00 1.336629999999999985e+00 1.059639999999999915e+01 1.037129999999999974e+01 1.699719999999999898e+00 8.192470000000000141e+00 9.799670000000000769e+00 4.244880000000000209e+00 1.108220000000000027e+01 7.807170000000000165e+00 5.152700000000000280e+00 1.650069999999999926e+00 2.106380000000000141e+00 7.600880000000000081e+00 5.138539999999999885e+00 4.304870000000000196e+00 7.145240000000000258e+00 1.261970000000000036e+00 4.107099999999999973e+00 1.080359999999999943e+01 3.731529999999999792e+00 1.300510000000000055e+00 1.064209999999999923e+01 7.475819999999999688e+00 1.968529999999999891e+00 7.695820000000000327e+00 1.158670000000000044e+01 4.791050000000000253e+00 7.406620000000000203e+00 7.169559999999999711e+00 4.041830000000000034e+00 1.060970000000000013e+01 9.763909999999999201e+00 1.870039999999999925e+00 1.005719999999999992e+01 2.164489999999999803e+00 7.554789999999999672e+00 8.195029999999999148e+00 5.036419999999999675e+00 1.023240000000000016e+01 7.480369999999999742e+00 2.097719999999999807e+00 9.395289999999999253e+00 1.106479999999999997e+01 4.883770000000000167e+00 7.616460000000000008e+00 1.058869999999999933e+01 8.070619999999999905e+00 7.629059999999999953e+00 6.912020000000000053e+00 1.094580000000000020e+01 1.058530000000000015e+01 8.335309999999999775e+00 8.387600000000000833e+00 1.025580000000000069e+01 1.078069999999999951e+01 1.132900000000000063e+01 7.325510000000000410e+00 1.082479999999999976e+01 4.049280000000000435e+00 1.885780000000000012e+00 1.648730000000000029e+00 1.263519999999999976e+00 5.104330000000000034e+00 1.801029999999999909e+00 4.481130000000000280e+00 4.891460000000000363e+00 4.763910000000000089e+00 1.505360000000000031e+00 2.288100000000000023e+00 4.873109999999999609e+00 9.771010000000000417e+00 1.262880000000000003e+00 1.186700000000000088e+00 6.929229999999999556e+00 4.970620000000000260e+00 1.575199999999999934e+00 1.051219999999999999e+01 5.128759999999999764e+00 4.209050000000000402e+00 7.358130000000000059e+00 1.636039999999999939e+00 4.433530000000000193e+00 4.713339999999999641e+00 7.758580000000000254e+00 1.620209999999999928e+00 1.135299999999999976e+00 1.092730000000000068e+01 1.899210000000000065e+00 4.551709999999999923e+00 1.075949999999999918e+01 4.238030000000000186e+00 1.838819999999999899e+00 8.013450000000000628e+00 5.028550000000000075e+00 1.132799999999999940e+01 7.873509999999999565e+00 1.712560000000000082e+00 6.876739999999999853e+00 1.077089999999999925e+01 1.878330000000000055e+00 1.026219999999999999e+01 1.116580000000000084e+01 4.989550000000000374e+00 7.746929999999999872e+00 7.374789999999999957e+00 4.447499999999999787e+00 4.307999999999999829e+00 1.277590000000000003e+00 8.059079999999999799e+00 2.024999999999999911e+00 5.069300000000000139e+00 7.813790000000000013e+00 3.988370000000000193e+00 4.242079999999999629e+00 1.067849999999999966e+01 1.177229999999999999e+00 9.085779999999999967e-01 1.062059999999999960e+01 1.136100000000000065e+01 1.280110000000000081e+00 7.698400000000000354e+00 7.929079999999999906e+00 4.643989999999999618e+00 7.518500000000000405e+00 1.072949999999999982e+01 4.570599999999999774e+00 1.003810000000000002e+01 6.622390000000000221e+00 1.255959999999999965e+00 1.059070000000000000e+01 4.876929999999999765e+00 6.980979999999999741e+00 7.477050000000000196e+00 1.640020000000000033e+00 1.041999999999999993e+01 8.194889999999999119e+00 4.520880000000000010e+00 1.037950000000000017e+01 1.076689999999999969e+01 1.567560000000000064e+00 6.809099999999999930e+00 1.077180000000000071e+01 1.094289999999999985e+01 7.714039999999999786e+00 7.726479999999999571e+00 7.663850000000000051e+00 1.047729999999999961e+01 7.980410000000000004e+00 1.132540000000000013e+01 1.007089999999999996e+01 1.094500000000000028e+01 8.218239999999999768e+00 7.380639999999999645e+00 1.067050000000000054e+01
1.110929999999999973e+00 1.518580000000000041e+00 1.465859999999999941e+00 3.953590000000000160e+00 4.454579999999999984e+00 1.339499999999999913e+00 1.439100000000000046e+00 5.164159999999999862e+00 4.733340000000000103e+00 3.993059999999999832e+00 1.672709999999999919e+00 4.033669999999999867e+00 6.829690000000000261e+00 1.473360000000000003e+00 1.356409999999999894e+00 9.927659999999999485e+00 4.168359999999999843e+00 1.151650000000000063e+00 8.022850000000000037e+00 4.001759999999999984e+00 4.707760000000000389e+00 1.047889999999999944e+01 1.670840000000000103e+00 3.873540000000000205e+00 1.778510000000000035e+00 7.592080000000000162e+00 2.133680000000000021e+00 4.097550000000000026e+00 1.038589999999999947e+01 1.420760000000000023e+00 1.840780000000000083e+00 1.098739999999999917e+01 4.456360000000000099e+00 4.455219999999999736e+00 8.069060000000000343e+00 4.512800000000000367e+00 7.843210000000000015e+00 7.860319999999999752e+00 1.356489999999999974e+00 1.063610000000000078e+01 1.038659999999999961e+01 1.712220000000000075e+00 8.199120000000000630e+00 9.804429999999999978e+00 4.235280000000000378e+00 1.108319999999999972e+01 7.830239999999999867e+00 5.170770000000000088e+00 1.674439999999999928e+00 2.092340000000000089e+00 7.607739999999999725e+00 5.146550000000000402e+00 4.307870000000000310e+00 7.163479999999999848e+00 1.249149999999999983e+00 4.085539999999999949e+00 1.082329999999999970e+01 3.755160000000000053e+00 1.342619999999999925e+00 1.066310000000000002e+01 7.476700000000000124e+00 1.998180000000000067e+00 7.699959999999999916e+00 1.161120000000000019e+01 4.825230000000000352e+00 7.394650000000000389e+00 7.166179999999999772e+00 4.040709999999999802e+00 1.062439999999999962e+01 9.792699999999999960e+00 1.866659999999999986e+00 1.005470000000000041e+01 2.143219999999999903e+00 7.590709999999999624e+00 8.162660000000000693e+00 5.024709999999999788e+00 1.023140000000000072e+01 7.468810000000000393e+00 2.055569999999999897e+00 9.379559999999999675e+00 1.107000000000000028e+01 4.878149999999999764e+00 7.608810000000000073e+00 1.056530000000000058e+01 8.051579999999999515e+00 7.650719999999999743e+00 6.917209999999999859e+00 1.095700000000000074e+01 1.059420000000000073e+01 8.359249999999999403e+00 8.403819999999999624e+00 1.023279999999999923e+01 1.079609999999999914e+01 1.130010000000000048e+01 7.344960000000000377e+00 1.081830000000000069e+01 4.049990000000000201e+00 1.876509999999999900e+00 1.651699999999999946e+00 1.243889999999999940e+00 5.146709999999999674e+00 1.776589999999999892e+00 4.480879999999999974e+00 4.892739999999999867e+00 4.774930000000000341e+00 1.483030000000000070e+00 2.265369999999999884e+00 4.884750000000000369e+00 9.753619999999999735e+00 1.270000000000000018e+00 1.207359999999999989e+00 6.936359999999999637e+00 4.994950000000000223e+00 1.553739999999999899e+00 1.053969999999999985e+01 5.126360000000000028e+00 4.188589999999999591e+00 7.363809999999999967e+00 1.631219999999999892e+00 4.458580000000000432e+00 4.703719999999999679e+00 7.725640000000000285e+00 1.652349999999999985e+00 1.132379999999999942e+00 1.090900000000000070e+01 1.875050000000000106e+00 4.543000000000000149e+00 1.074469999999999992e+01 4.286089999999999733e+00 1.850230000000000041e+00 7.998610000000000220e+00 5.049760000000000026e+00 1.134440000000000026e+01 7.857429999999999914e+00 1.689840000000000009e+00 6.874620000000000175e+00 1.074660000000000082e+01 1.871399999999999952e+00 1.027759999999999962e+01 1.116590000000000060e+01 4.979910000000000281e+00 7.745440000000000325e+00 7.343989999999999796e+00 4.410309999999999953e+00 4.301859999999999573e+00 1.280419999999999892e+00 8.046799999999999287e+00 2.002439999999999998e+00 5.058399999999999785e+00 7.794830000000000148e+00 3.996690000000000076e+00 4.248940000000000161e+00 1.069009999999999927e+01 1.170879999999999921e+00 9.391150000000000331e-01 1.061880000000000024e+01 1.138199999999999967e+01 1.260359999999999925e+00 7.682220000000000049e+00 7.936480000000000423e+00 4.648609999999999687e+00 7.526959999999999873e+00 1.071410000000000018e+01 4.562420000000000364e+00 1.003090000000000082e+01 6.627299999999999969e+00 1.241630000000000011e+00 1.060820000000000007e+01 4.847409999999999997e+00 6.974359999999999893e+00 7.436659999999999826e+00 1.620859999999999967e+00 1.040320000000000000e+01 8.188269999999999271e+00 4.501590000000000202e+00 1.039320000000000022e+01 1.077319999999999922e+01 1.555909999999999904e+00 6.808180000000000121e+00 1.076570000000000071e+01 1.096700000000000053e+01 7.695260000000000211e+00 7.748359999999999914e+00 7.639389999999999681e+00 1.046349999999999980e+01 7.957099999999999618e+00 1.133629999999999960e+01 1.006060000000000088e+01 1.093970000000000020e+01 8.212569999999999482e+00 7.405459999999999710e+00 1.071369999999999933e+01
7.337150000000000061e-01 1.572359999999999980e+00 1.286629999999999940e+00 3.760320000000000107e+00 5.190000000000000391e+00 2.125820000000000043e+00 2.133280000000000065e+00 4.945280000000000342e+00 4.531419999999999781e+00 2.599979999999999958e+00 1.100579999999999892e+00 4.086430000000000007e+00 6.872180000000000177e+00 1.619580000000000020e+00 1.027579999999999938e+00 9.648490000000000677e+00 4.995199999999999640e+00 1.850840000000000041e+00 7.544579999999999842e+00 4.706750000000000433e+00 4.663899999999999935e+00 9.898199999999999221e+00 1.798030000000000017e+00 4.737379999999999924e+00 1.177059999999999995e+00 7.854280000000000150e+00 1.909499999999999975e+00 5.020789999999999864e+00 1.173789999999999978e+01 2.621669999999999945e+00 9.953790000000000138e-01 1.096610000000000085e+01 4.847489999999999633e+00 5.136580000000000368e+00 7.256020000000000358e+00 4.278209999999999624e+00 7.390710000000000335e+00 7.647289999999999921e+00 1.806170000000000053e+00 1.052030000000000065e+01 1.082080000000000020e+01 1.929510000000000058e+00 7.175469999999999793e+00 1.061800000000000033e+01 5.025509999999999700e+00 1.165910000000000046e+01 7.813030000000000364e+00 4.887839999999999741e+00 2.113859999999999850e+00 1.033209999999999962e+00 7.053779999999999717e+00 4.617259999999999920e+00 4.662759999999999572e+00 7.276320000000000121e+00 1.132810000000000095e+00 4.619810000000000194e+00 1.048060000000000080e+01 3.327420000000000044e+00 6.370609999999999884e-01 9.490880000000000649e+00 7.899540000000000006e+00 1.413140000000000063e+00 7.357639999999999958e+00 1.051800000000000068e+01 4.766589999999999883e+00 7.780310000000000059e+00 7.323500000000000121e+00 4.571139999999999759e+00 1.052989999999999959e+01 1.040310000000000024e+01 1.629340000000000011e+00 1.047029999999999994e+01 1.656279999999999974e+00 7.377790000000000070e+00 7.604729999999999990e+00 5.251240000000000130e+00 1.049259999999999948e+01 7.925110000000000099e+00 1.705789999999999917e+00 1.022310000000000052e+01 1.080739999999999945e+01 5.183819999999999872e+00 7.391659999999999897e+00 1.059060000000000024e+01 7.421909999999999563e+00 7.168149999999999800e+00 7.709850000000000314e+00 1.124729999999999919e+01 1.055869999999999997e+01 7.602529999999999788e+00 7.718270000000000408e+00 1.073540000000000028e+01 1.092859999999999943e+01 1.103730000000000011e+01 7.418680000000000163e+00 1.056600000000000072e+01 4.117519999999999847e+00 1.778259999999999952e+00 1.037879999999999914e+00 1.145029999999999992e+00 4.416400000000000325e+00 2.014689999999999870e+00 4.620910000000000295e+00 3.828139999999999876e+00 4.716820000000000235e+00 3.988539999999999863e-01 2.271319999999999784e+00 5.305430000000000312e+00 1.019989999999999952e+01 1.816159999999999997e+00 1.694050000000000056e+00 7.022780000000000022e+00 4.571559999999999846e+00 1.368500000000000050e+00 1.106170000000000009e+01 4.825230000000000352e+00 4.872889999999999944e+00 7.371360000000000134e+00 1.647129999999999983e+00 4.711459999999999759e+00 4.138010000000000410e+00 8.137370000000000658e+00 1.874659999999999993e+00 1.707759999999999945e+00 1.091559999999999953e+01 1.938099999999999934e+00 4.587240000000000428e+00 9.673339999999999606e+00 5.415169999999999817e+00 2.378029999999999866e+00 7.477890000000000370e+00 4.578549999999999898e+00 1.074510000000000076e+01 7.390189999999999593e+00 2.051689999999999792e+00 7.863489999999999647e+00 1.051159999999999961e+01 1.822389999999999954e+00 1.070509999999999984e+01 1.035239999999999938e+01 4.739270000000000316e+00 8.295709999999999695e+00 8.032000000000000028e+00 4.704150000000000276e+00 5.085090000000000110e+00 1.632489999999999997e+00 7.050119999999999720e+00 1.903909999999999991e+00 4.168219999999999814e+00 7.415390000000000370e+00 4.424500000000000099e+00 4.499469999999999636e+00 1.033130000000000059e+01 8.023580000000000156e-01 1.917280000000000095e+00 1.014739999999999931e+01 1.113969999999999949e+01 1.548440000000000039e+00 7.791479999999999961e+00 7.608139999999999681e+00 4.353690000000000282e+00 7.867930000000000312e+00 1.072489999999999988e+01 4.533269999999999911e+00 1.090820000000000078e+01 7.072169999999999845e+00 1.569809999999999928e+00 1.031359999999999921e+01 4.795440000000000147e+00 7.510880000000000223e+00 7.762520000000000309e+00 1.907790000000000097e+00 1.019120000000000026e+01 7.599020000000000330e+00 4.910569999999999879e+00 1.027180000000000071e+01 1.080059999999999931e+01 1.663480000000000070e+00 7.601009999999999600e+00 1.085330000000000084e+01 1.106010000000000026e+01 7.751089999999999591e+00 7.601639999999999731e+00 8.171179999999999666e+00 1.035660000000000025e+01 7.815389999999999837e+00 1.057349999999999923e+01 1.062940000000000040e+01 1.062059999999999960e+01 7.877769999999999939e+00 7.305550000000000210e+00 1.025089999999999968e+01
1.014029999999999987e+00 2.005679999999999907e+00 1.089550000000000018e+00 4.041389999999999816e+00 4.717690000000000161e+00 9.311629999999999630e-01 1.607150000000000079e+00 4.987020000000000231e+00 4.813950000000000173e+00 4.583380000000000010e+00 1.416449999999999987e+00 4.325079999999999814e+00 6.387809999999999988e+00 1.544229999999999992e+00 1.789730000000000043e+00 1.020800000000000018e+01 4.470970000000000333e+00 1.376219999999999999e+00 7.823140000000000427e+00 4.339559999999999640e+00 4.205639999999999823e+00 1.092329999999999934e+01 1.843399999999999928e+00 3.611330000000000151e+00 1.664979999999999905e+00 7.349129999999999718e+00 2.098409999999999886e+00 4.219890000000000363e+00 1.030279999999999951e+01 1.260829999999999895e+00 1.811739999999999906e+00 1.114920000000000044e+01 4.577499999999999680e+00 4.886300000000000310e+00 7.830429999999999779e+00 4.463870000000000005e+00 7.266720000000000290e+00 7.573570000000000135e+00 1.441349999999999909e+00 1.081029999999999980e+01 1.049070000000000036e+01 2.036849999999999827e+00 7.616999999999999993e+00 1.109720000000000084e+01 4.396440000000000126e+00 1.100120000000000076e+01 7.739090000000000025e+00 4.903649999999999842e+00 1.324109999999999898e+00 1.586870000000000003e+00 7.740079999999999849e+00 5.044620000000000104e+00 4.160409999999999719e+00 7.086459999999999759e+00 2.667510000000000159e-01 3.821379999999999999e+00 1.030630000000000024e+01 3.741890000000000160e+00 1.581569999999999920e+00 1.048390000000000022e+01 7.567129999999999690e+00 1.664870000000000072e+00 7.141379999999999839e+00 1.133900000000000041e+01 3.946379999999999999e+00 7.073310000000000208e+00 7.096930000000000405e+00 4.254179999999999851e+00 1.078800000000000026e+01 9.734439999999999316e+00 1.467710000000000070e+00 1.019229999999999947e+01 1.319930000000000048e+00 7.114379999999999704e+00 7.935330000000000439e+00 5.055799999999999628e+00 9.956580000000000652e+00 7.675830000000000375e+00 2.025079999999999991e+00 1.013310000000000066e+01 1.085490000000000066e+01 4.595989999999999576e+00 7.057019999999999627e+00 1.038819999999999943e+01 7.746739999999999959e+00 7.741500000000000270e+00 6.945120000000000182e+00 1.095069999999999943e+01 1.028369999999999962e+01 8.408070000000000377e+00 8.308189999999999742e+00 9.766909999999999314e+00 1.054110000000000014e+01 1.122010000000000041e+01 7.098169999999999646e+00 1.084370000000000012e+01 4.078350000000000364e+00 2.305320000000000036e+00 1.391380000000000061e+00 1.285490000000000022e+00 4.896930000000000227e+00 1.412369999999999903e+00 4.684669999999999668e+00 4.803359999999999630e+00 4.587469999999999715e+00 1.778759999999999897e+00 1.824799999999999978e+00 4.905129999999999768e+00 9.658340000000000813e+00 1.002680000000000016e+00 1.625490000000000101e+00 6.588449999999999918e+00 4.584780000000000300e+00 1.914250000000000007e+00 1.081230000000000047e+01 5.346470000000000056e+00 4.580519999999999925e+00 7.253250000000000419e+00 1.742480000000000029e+00 4.678189999999999849e+00 4.593289999999999651e+00 7.867569999999999730e+00 1.738269999999999982e+00 1.047029999999999905e+00 1.088279999999999959e+01 1.509779999999999900e+00 4.676090000000000302e+00 1.048240000000000016e+01 5.027860000000000440e+00 2.172299999999999898e+00 7.822400000000000020e+00 5.286389999999999922e+00 1.136999999999999922e+01 7.984960000000000058e+00 2.122430000000000039e+00 7.016510000000000247e+00 1.056370000000000076e+01 1.700099999999999945e+00 1.053200000000000003e+01 1.168699999999999939e+01 4.955560000000000187e+00 7.902300000000000324e+00 7.366729999999999556e+00 4.486900000000000333e+00 4.698419999999999597e+00 1.369560000000000111e+00 7.885650000000000048e+00 2.109399999999999942e+00 4.576780000000000292e+00 7.912069999999999936e+00 4.206489999999999618e+00 4.500219999999999665e+00 1.054700000000000060e+01 1.108279999999999932e+00 7.607639999999999958e-01 1.049259999999999948e+01 1.107929999999999993e+01 1.604950000000000099e+00 7.802290000000000170e+00 7.815170000000000172e+00 4.769129999999999647e+00 7.198900000000000077e+00 1.021909999999999918e+01 4.466289999999999871e+00 9.784299999999999997e+00 7.222809999999999953e+00 1.490199999999999969e+00 1.064320000000000022e+01 4.836109999999999687e+00 6.915949999999999598e+00 7.611799999999999677e+00 1.552810000000000024e+00 1.077880000000000038e+01 8.031370000000000786e+00 4.456739999999999924e+00 1.074409999999999954e+01 1.076409999999999911e+01 1.587550000000000017e+00 7.148179999999999978e+00 1.096410000000000018e+01 1.112400000000000055e+01 7.800790000000000113e+00 8.123780000000000001e+00 7.656789999999999985e+00 1.062059999999999960e+01 7.708630000000000315e+00 1.112829999999999941e+01 1.033649999999999913e+01 1.095260000000000034e+01 8.547019999999999840e+00 7.199460000000000193e+00 1.092360000000000042e+01
1.125820000000000043e+00 1.609110000000000040e+00 1.761419999999999986e+00 4.648360000000000269e+00 4.809389999999999610e+00 1.701959999999999917e+00 6.948029999999999484e-01 4.557940000000000325e+00 4.402440000000000353e+00 4.193769999999999776e+00 1.312959999999999905e+00 4.387109999999999843e+00 6.898279999999999745e+00 2.448059999999999903e+00 5.060569999999999791e-01 1.035650000000000048e+01 4.836920000000000108e+00 1.755169999999999897e+00 7.391379999999999839e+00 5.078949999999999854e+00 4.565839999999999677e+00 1.007649999999999935e+01 1.250629999999999908e+00 4.776830000000000354e+00 1.425000000000000044e+00 7.325269999999999726e+00 1.919300000000000006e+00 4.873949999999999783e+00 9.887150000000000105e+00 1.512049999999999894e+00 1.497460000000000013e+00 1.068360000000000021e+01 4.482899999999999885e+00 4.746649999999999814e+00 7.519350000000000200e+00 5.062319999999999709e+00 7.280509999999999593e+00 7.786550000000000082e+00 1.655569999999999986e+00 1.074489999999999945e+01 1.074119999999999919e+01 1.743700000000000028e+00 7.681390000000000384e+00 1.049789999999999957e+01 4.650520000000000209e+00 1.099489999999999945e+01 7.177959999999999674e+00 4.947079999999999700e+00 1.388109999999999955e+00 1.648849999999999927e+00 7.668420000000000236e+00 4.741089999999999804e+00 4.902870000000000061e+00 7.326690000000000147e+00 1.579820000000000002e+00 4.754599999999999937e+00 1.088819999999999943e+01 4.443109999999999893e+00 1.277209999999999956e+00 1.025500000000000078e+01 7.532079999999999664e+00 1.340279999999999916e+00 7.593880000000000408e+00 1.079390000000000072e+01 4.408649999999999736e+00 7.952169999999999739e+00 8.104929999999999524e+00 4.080210000000000115e+00 1.069999999999999929e+01 1.013649999999999984e+01 1.764380000000000059e+00 1.047610000000000063e+01 1.615909999999999958e+00 7.409370000000000012e+00 7.540219999999999700e+00 5.095889999999999809e+00 1.051789999999999914e+01 7.809590000000000032e+00 1.551549999999999985e+00 1.048869999999999969e+01 1.061200000000000010e+01 5.261409999999999698e+00 7.180690000000000239e+00 1.123680000000000057e+01 8.069979999999999265e+00 7.261730000000000018e+00 7.264319999999999666e+00 1.086490000000000045e+01 1.042849999999999966e+01 7.827659999999999840e+00 7.642990000000000173e+00 1.005059999999999931e+01 1.078580000000000005e+01 1.071119999999999983e+01 7.604759999999999742e+00 1.072990000000000066e+01 4.339669999999999916e+00 2.118160000000000043e+00 1.701449999999999907e+00 1.239840000000000053e+00 4.730749999999999567e+00 1.782459999999999933e+00 4.681890000000000107e+00 4.501439999999999664e+00 4.720620000000000260e+00 1.153680000000000039e+00 1.668290000000000051e+00 4.936280000000000001e+00 9.971339999999999648e+00 1.786040000000000072e+00 1.714059999999999917e+00 7.301210000000000200e+00 5.021770000000000067e+00 1.721510000000000096e+00 9.916710000000000136e+00 4.589229999999999698e+00 4.653159999999999741e+00 7.368350000000000399e+00 1.925789999999999891e+00 4.660660000000000025e+00 4.354750000000000121e+00 7.477540000000000298e+00 2.096459999999999990e+00 1.575080000000000036e+00 1.085500000000000043e+01 1.587550000000000017e+00 4.538339999999999819e+00 1.005339999999999989e+01 5.171640000000000015e+00 1.878740000000000077e+00 7.078299999999999592e+00 4.620140000000000136e+00 9.950889999999999347e+00 7.933469999999999800e+00 1.577239999999999975e+00 7.624509999999999899e+00 1.073320000000000007e+01 1.661089999999999955e+00 1.038419999999999987e+01 1.060539999999999949e+01 4.490219999999999878e+00 8.117089999999999250e+00 7.747510000000000119e+00 4.411080000000000112e+00 5.010930000000000106e+00 1.697470000000000034e+00 7.530739999999999768e+00 1.774669999999999970e+00 4.477330000000000254e+00 7.195669999999999789e+00 4.773109999999999964e+00 4.502950000000000230e+00 1.044890000000000008e+01 1.791619999999999990e+00 1.921910000000000007e+00 1.056939999999999991e+01 1.034459999999999980e+01 1.447189999999999976e+00 7.674039999999999750e+00 7.409329999999999750e+00 4.201159999999999783e+00 7.521149999999999558e+00 1.062650000000000006e+01 4.686840000000000117e+00 1.058639999999999937e+01 7.318290000000000184e+00 1.032920000000000060e+00 1.025259999999999927e+01 4.676669999999999661e+00 7.404779999999999696e+00 7.850310000000000343e+00 1.933319999999999927e+00 1.016920000000000002e+01 7.579760000000000275e+00 4.251280000000000392e+00 1.042029999999999923e+01 1.084469999999999956e+01 1.527330000000000076e+00 7.508420000000000094e+00 1.056600000000000072e+01 1.083200000000000074e+01 7.422939999999999650e+00 7.681799999999999962e+00 7.796730000000000160e+00 1.007920000000000016e+01 7.490809999999999746e+00 1.020410000000000039e+01 1.059459999999999980e+01 1.046579999999999977e+01 7.978909999999999947e+00 6.916479999999999961e+00 1.015130000000000088e+01