-1.051170816162378833e+04
-1.051297226778369259e+04
-1.051349247326473414e+04
-1.051416224196593248e+04
-1.051127256179824144e+04
-1.051577909517063927e+04
-1.051535844146546879e+04
-1.051314648349683375e+04
-1.051470276637327879e+04
-1.051585721909567656e+04
-1.051557142936558193e+04
-1.051533750097712982e+04
-1.051072946922853953e+04
-1.051541191154257649e+04
-1.051560401089364859e+04
-1.051200698529351030e+04
-1.051588649213920326e+04
-1.051150226236538765e+04
-1.051464799282141576e+04
-1.051297901790480500e+04
-1.051459847865634765e+04
-1.051622772715947940e+04
-1.051431439460835463e+04
-1.051468150050200711e+04
-1.051191961878177426e+04
-1.051414609092228238e+04
-1.051337082372960322e+04
-1.051550065911195816e+04
-1.051531449616060854e+04
-1.051439696468406146e+04
-1.051253838935479143e+04
-1.051234277002431918e+04
-1.051371765344013147e+04
-1.051526868787040621e+04
-1.051172945887197056e+04
-1.051140165780567986e+04
-1.051321992597310054e+04
-1.051278011858363971e+04
-1.051538962240825276e+04
-1.051561791070518120e+04
-1.051166055378345482e+04
-1.051429168081994794e+04
-1.051502889447475718e+04
-1.051452899563167193e+04
-1.051307837490556085e+04
-1.051367625617380327e+04
-1.051232395703091061e+04
-1.051590140776970838e+04
-1.051073900929380397e+04
-1.051181603166825334e+04
-1.051345598101515498e+04
-1.051164311685990469e+04
-1.051203442155793164e+04
-1.051359703572468788e+04
-1.051478428818354223e+04
-1.051585121683571197e+04
-1.051447144003560607e+04
-1.051374107427879790e+04
-1.051408001764139226e+04
-1.051284663611109318e+04
-1.051238882946332888e+04
-1.051326075324966405e+04
-1.051157356126793820e+04
-1.051639030678036397e+04
-1.051411859284905950e+04
-1.051267894485357829e+04
-1.051519469754458987e+04
-1.051400866174888688e+04
-1.051291272975309221e+04
-1.051345815579951704e+04
-1.051384397810006703e+04
-1.051387427393548387e+04
-1.051450982588749685e+04
-1.051198732605875011e+04
-1.051557753070623039e+04
-1.051418452715987405e+04
-1.051589653660324075e+04
-1.051169434133044524e+04
-1.051503727902674291e+04
-1.051043311743983941e+04
-1.051357547821813932e+04
-1.051460043983892865e+04
-1.051156434241850002e+04
-1.051496327679282513e+04
-1.051488393512585571e+04
-1.051320967812201889e+04
-1.051528669003234063e+04
-1.051655689987611186e+04
-1.051343941525501032e+04
-1.051501899400133516e+04
-1.051132352959910713e+04
-1.051447134338779506e+04
-1.051555417873414081e+04
-1.051133436857403649e+04
-1.051315927277568699e+04
-1.051341492928267144e+04
-1.051616257664835575e+04
-1.051314395201809930e+04
-1.051407633398882354e+04
-1.051185588056426604e+04
-1.051338230427632880e+04
-1.051087521921951338e+04
-1.051435869857867146e+04
-1.051364129051699092e+04
-1.051186632425863536e+04
-1.051304175197492805e+04
-1.051331597468577638e+04
-1.051207466345103057e+04
-1.051324272416382701e+04
-1.051525813946654853e+04
-1.051317795837160156e+04
-1.051442664323236932e+04
-1.051199424673058093e+04
-1.051436213036663321e+04
-1.051322820147387756e+04
-1.051371475696536072e+04
-1.051382154275817265e+04
-1.051430680993163878e+04
-1.051460534290080614e+04
-1.051199000507810342e+04
-1.051340904255778150e+04
-1.051466888176838074e+04
-1.051420614335711980e+04
-1.051262227551110846e+04
-1.051324419183520695e+04
-1.051255365949859333e+04
-1.051120988022670099e+04
-1.051444746586943620e+04
-1.051351602548783558e+04
-1.051544545875444783e+04
-1.051457878381784758e+04
-1.051364162724442031e+04
-1.051445216715778042e+04
-1.051543368709724200e+04
-1.051330937870321395e+04
-1.051520801441093317e+04
-1.051342726218416647e+04
-1.051676255090920495e+04
-1.051444922432855128e+04
-1.051062933782068649e+04
-1.051524657239011140e+04
-1.051095347396339639e+04
-1.051529510043766277e+04
-1.051101918948351886e+04
-1.051091962686321313e+04
-1.051462824394871677e+04
-1.051347379446767263e+04
-1.051503117075593218e+04
-1.051381256857441622e+04
-1.051485597852856154e+04
-1.051360079522083652e+04
-1.051074840278566626e+04
-1.051216635195953313e+04
-1.051636750655413016e+04
-1.051385533000818214e+04
-1.051461069180157392e+04
-1.051346951002769856e+04
-1.051379084072094884e+04
-1.051297745890958140e+04
-1.051635033559516341e+04
-1.051462417208954867e+04
-1.051391137415714911e+04
-1.051200087307539252e+04
-1.051351157306384812e+04
-1.051384399846901943e+04
-1.051340021477976916e+04
-1.051186562714494539e+04
-1.051618603329835605e+04
-1.051218352032873554e+04
-1.051380998175796958e+04
-1.051579770351797379e+04
-1.051510895762935252e+04
-1.051409915543487841e+04
-1.051628579056220588e+04
-1.051183098695467197e+04
-1.051355368323269067e+04
-1.051329788042479049e+04
-1.051118583411083637e+04
-1.051146070035942466e+04
-1.051341019778577538e+04
-1.051239284476510329e+04
-1.051297634657689741e+04
-1.051330818746884506e+04
-1.051063436698698933e+04
-1.051302786171328262e+04
-1.051450744823894092e+04
-1.051422597349455282e+04
-1.051312485999614546e+04
-1.051241203557547669e+04
-1.051470708214787919e+04
-1.051463793069028361e+04
-1.051302672557155711e+04
-1.051188396218563321e+04
-1.051548017852431258e+04
-1.051408086452469797e+04
-1.051596024427538578e+04
-1.051548007957910886e+04
-1.051370523549035352e+04
-1.051527738554563621e+04
-1.051437076684283784e+04
