2.009738779900013039e+00 1.068840493435565753e+00 3.597384696346386801e-02 4.460514311331282844e-01 1.352554527973913109e-02 8.490924201764592505e-01 3.331841162055343974e-01 -1.123987570878455911e+00 3.373667868250606605e-01 1.666223971200467835e-01 2.580708800688940041e-01 1.409411903238360353e-01 3.410264950619881774e-01 -1.091942369542381108e+00 -1.605983024178400387e-01 5.960573027553425218e-01 2.113724476074169689e-01 1.287263934347008254e-01 2.743516194941238440e-01 -2.158416419630139860e+00 3.129490201213229739e-01 -2.269954988445015143e-01 3.420287110734777647e-01 -7.974831806807461954e-01 2.208947852681480417e-01 1.556664637597611200e+00 6.900018126512244554e-02 -8.066008267042058533e-01 4.758032084511205212e-02 -3.461501894378130051e-01 3.319715839556152681e-01 -7.089765539667540473e-02 9.809169929180995562e-02 -1.368598211687856725e-01 1.557060073263509536e-02 -4.818458150960740483e-01 -2.437642336493638096e-01 1.146001870348893448e+00 7.786637339960374160e-02 -1.125044808497554394e+00 -1.422606804651815438e+00 -5.407981252147072704e-01 -3.781748219486137930e-01 3.805952584627655261e-02 -7.640007326786303343e-01 6.842219727491498545e-03 -3.007129344980288721e+00 -1.467629392074069727e+00 -1.387886627588819366e-01 2.105712918629835118e-01 -3.686889939527445703e-01 6.429963904725286561e-01 -3.014577316612108149e-01 -4.720463125147719152e-01 2.603637898663451189e-01 -6.301028223493421176e-01 1.116753515029489385e-01 1.834169458006283282e+00 -1.368911886273289635e-01 3.747814799989883094e-01 -2.375262231643044952e-01 7.673539654189710513e-01 3.225124954326026305e-01 -7.613823212212137426e-01 -1.191656434927700348e+00 6.641827947256759845e-01 -1.325269981247571560e-01 -5.578789919431068611e-01 -1.216258292617643066e+00 -3.794063803619117103e-01 -4.440603688465773885e-02 -2.351801429535193222e+00 -1.212707084934037394e-01 2.649264695328137353e-01 -9.594235989477334359e-01 -7.006204686990749608e-02 -1.830882559727452230e-02 -1.208542926257257788e+00 -1.533549905974999628e-01 -3.019303004218875097e-01 -1.672327770100612565e-01 -1.971521902540387949e-02 -5.091545301921127642e-01 1.374793027639840126e+00 -2.538013061625838951e-01 -7.666386845200576783e-01 -1.561111617621911973e+00 5.425783570421969237e-01 -1.369420964698828298e-02 6.089513850991611355e-01 -1.039065061968508452e+00 -4.100482735936485379e-01 2.108458856803952508e-01 -3.405287294903504236e+00 -1.595348941511594232e+00 5.943315783148297449e-01 4.729513408268405938e-01 -5.663600328243273418e-01 1.228889093997950654e+00 2.283972642869441516e-01 -1.260705467152849257e+00 -1.056387098173248829e+00 -2.902934875229598033e-01 -1.368676373223899345e+00 -4.800712396955349182e-02 7.673596218459214358e-01 -6.159365581623088559e-01 -2.788618486561430729e-02 -1.478523156159964047e-01 3.007969581492743738e-01 1.880813383080783385e+00 -6.150747243833162292e-01 6.587665088103243916e-01 4.436294519570810335e-01 -8.169073508285189522e-01 1.918968553964585030e-02 5.569636792184012863e-01 -2.535210559182217785e-02 -1.397899531732341938e+00 8.552635819793772409e-01 1.729930765281252891e-01 -2.039892677752117578e-01 2.091016492971357055e-01 -1.327465703345601655e-01 5.128034397957712542e-01 7.209018446401536107e-01 3.715763428006225721e-01 9.286937739879489451e-01 -9.901158858013924258e-01 -3.409282789213034250e-04 1.566893514406513921e+00 4.375163970855630025e-01 7.430822373746808207e-01 -4.545525266189910374e-01 3.860192576875949300e-01 -1.657263676690356791e+00 -1.356591159933991930e-01 5.112926595793748641e-01 -3.701761200200755497e-01 2.363960176375456079e+00 -7.759635614581555929e-01 -1.423239296028999679e-01 2.975536143579616155e+00 8.546244057339787148e-02 2.976031338048094610e-01 1.605000862771553405e-01 -1.109482435295029018e-02 1.983220421915138643e-01 -4.069459805216543158e-01 1.289804184268382725e-01 -6.836434745383105360e-01 6.838712742782232512e-01 -1.591919604117738807e+00 -1.554374298903319351e+00 -7.998701928538272735e-03 -1.141801202007252242e-01 -7.074385200568692467e-01 2.070000295747354835e-01 1.940367331338689549e+00 1.833823901741675477e-01 3.665184686656755009e-01 1.034658191153492168e-01 4.505014964812202871e-01 7.098234753474226277e-01 -7.013861432199103296e-01 8.161416763076836389e-01 3.085128387302911723e-01 -9.392610079726139150e-01 -6.769174686736186830e-01 3.756150316432287917e-01 -9.375661367700126592e-01 -2.992897774773009556e-01 5.761415376835142821e-01 -3.696217901789334518e-03 -2.322132955959562151e-01 5.650163743132845529e-01 2.284440583644431477e+00 3.528386571963792129e+00 1.687331699696941190e+00 -4.651151326179692180e-01 8.117646302893154475e-01 2.132812345928707942e-01 1.088589136802040391e+00 -6.085322952841974997e-01 9.284202086118011066e-02 7.387231890784273780e-01 1.602308403543149185e+00 5.622390686806240101e-01 -6.213240477222764513e-01 -6.176612541615578156e-02 -5.371548720379992932e-03 1.234909074935102602e+00
-3.826403139156615008e-01 5.688231496509230656e-01 -2.474676506399991482e-01 3.683897175450036587e-01 1.953208448957427068e+00 2.079207416160757216e+00 1.913373833489979414e-01 -5.969695301562571998e-01 1.781748778353499651e-01 8.449215766314657206e-01 3.533281952379072055e-01 4.609639837231758186e+00 1.045412087227521436e+00 5.607282884642275089e-01 5.165181696403075007e-01 -2.639715618194549696e-01 2.115992189060660056e-01 2.992635522250762792e-01 -3.821872855389952806e-01 2.292707194522167313e+00 8.218325560404469987e-02 -2.867551353551506255e-01 4.128204370199906048e-01 3.091813255517054659e-01 3.352883070310939684e-01 1.088828763616485951e+00 1.041913844268997115e-02 3.400880424088488230e-01 3.417942264653509588e-01 6.752673346659890941e-01 -8.299798677315918249e-01 9.155029863395490464e-02 1.436038247555924574e+00 1.003587437914786440e+00 -1.145000168558035547e+00 2.050475338355738086e-01 -6.723331917406120961e-02 -3.569416236179675517e-01 6.165196843588349740e-01 -6.054310306534668173e-01 8.012380197345673194e-01 9.611066430758021806e-01 -8.543919780083791826e-01 2.115148867224414087e+00 6.719320996477633895e-03 1.319032484983144182e-01 2.926455326930744727e-01 -1.435074083871192396e+00 5.169202901744197609e-01 2.515269083078796597e-01 8.690122990133422598e-02 -5.307168297271476487e-02 -7.023744752743397157e-01 1.334377342858394044e+00 -7.332050874779683092e-01 -1.110302617202841180e+00 -3.736604790215397043e-01 8.138415674213865802e-01 2.355690994394561144e-01 -1.047277165459267467e-01 1.814859444838783087e-01 -9.442885430902815402e-01 -2.257228027806550408e-01 -4.244202260334245524e-01 4.691851889191187008e-02 -5.081991082581220898e-01 -1.563184440988928392e-01 1.626870666244438768e-01 2.777423903405900063e-01 1.153525432413595592e-01 6.343837091095529124e-02 -6.074771145476265399e-01 1.117329442137169476e-01 1.920495275020569492e+00 -5.674748631541934873e-01 -5.867339684791401666e-01 3.007198250544957929e-01 1.656412641544633135e-01 -1.175778844477846530e+00 1.138713821333581899e+00 -4.798537243682594045e-01 4.963314102954904938e-01 -5.839150109752992979e-01 -5.759080815166511824e-01 -1.723760117698966698e-01 2.282491687449692830e-01 2.592457713685612397e+00 4.689666451505793421e-01 1.442404298978316179e-01 -8.905550581643665309e-01 -2.282208866102171108e-01 -3.002811948555216270e-01 6.039161366720156854e-02 -1.560154138805394108e+00 3.241842267067702732e-01 1.010237853346595410e-02 -7.900650338455748045e-01 -1.376649878341476452e+00 -2.897565897612377039e+00 -4.120290514675623572e-01 -1.722392805038858388e+00 4.666901904133476386e-01 -1.115359977117156703e-01 -1.251325054386510649e-01 -2.041635371473481619e+00 -7.498756061421458785e-01 -5.913208165153062135e-01 -4.760598045464171646e-01 4.713510862205010921e-01 6.985476453320587087e-01 -6.639411110287030127e-02 9.617674165877383441e-01 -8.372031249472896564e-01 1.001547524668209080e-02 1.045789010950672449e+00 -5.173064698689443519e-01 -3.225191803008166987e-03 -2.430299265870717873e-01 -1.863575164839035514e+00 5.414990079359286446e-01 -4.403888335351171385e-02 -6.567224817986920815e-01 4.218660921549899911e-01 8.567172837056374890e-02 -3.291881076753723767e-01 -2.101516878273880853e-02 3.302587150308990416e-01 8.836758145513813334e-01 1.451336825574307321e+00 -1.088138679528533492e+00 3.670794833750316566e-01 -2.207667443308156119e-01 -9.140086611833720953e-01 -1.536490219547959057e+00 8.686034936110158533e-01 6.513725303448500981e-01 -3.754813342789459218e-01 -9.010868109254331904e-01 1.572069659286788434e+00 -4.651495854003036001e-01 9.924663883096115913e-02 -5.112170691464917871e-01 -1.870376761136610444e+00 -1.263912147013110276e+00 2.401322933265565840e-01 -3.613695774788895920e-01 -1.567843279913554433e+00 -9.196013247754506459e-01 -2.801389155953603716e+00 -6.555315468153108949e-01 1.221203552434213302e+00 -7.199088846000373514e-05 -2.282237662457555327e+00 -1.053515175944326421e+00 7.045506569883592807e-01 3.581839806645344404e-01 -1.240639035435886939e+00 4.362118193425413293e-01 -9.554784982601254029e-02 1.368150839738141167e-01 1.586252378534040997e-01 -1.048228473628202984e-01 -5.159936645958130841e-01 -8.626477902528459918e-01 7.328384481674540263e-01 9.397963116503773584e-01 2.740194329659441097e-01 -3.314578775443898784e-01 3.348779589668720025e-01 1.889363843747304594e+00 8.986792299270780493e-01 -1.471750870438404968e-01 -3.034673058905085763e-01 8.940754126100607102e-02 1.255026414494618603e+00 2.275775965997638428e-01 -1.964874058211738328e+00 1.474953950754243293e+00 3.962260230093278546e-01 1.586077543519209543e-01 3.317288718173786594e-02 -7.484414447998961606e-01 6.373775016282253736e-01 4.048721287133743574e-01 -3.649732356669447425e-02 -5.353772113136689992e-01 -7.404160033985013323e-02 6.807669243237015611e-01 -7.271172294174111927e-01 -5.476202903375565478e-01 5.035675230269845981e-01 -1.075538731386137536e+00
-3.395337125677067580e-01 6.378397859762650057e-01 -2.795200510649202205e-02 3.666511375886946089e-01 1.427313466095203820e+00 1.963897553231842119e+00 1.811717556778135729e-01 -5.643653709933532658e-01 1.486190185780954520e-01 9.077979043918011914e-01 3.708790596238242254e-01 3.896344858398667732e+00 8.275162366843642481e-01 4.253998163371126018e-01 1.104035296141766098e+00 -2.952068656603550334e-01 1.257634541539398298e-01 2.920732051298174370e-01 -2.692248397945078420e-01 2.109783489151616287e+00 5.607575990402434603e-03 -3.604018142497343868e-01 3.390976534718919133e-01 2.563533831584910438e-01 4.447694790979083712e-01 1.600453609724040493e+00 6.359469398303986554e-02 3.229644953680050889e-01 1.741814404083471823e-01 1.671883997695319923e+00 -7.723521899606226038e-01 2.066292764991664588e-02 1.304559231078892267e+00 1.109383704933712522e+00 -1.046566512546040606e+00 1.233743850983314155e-01 -1.079287399792376034e-01 -2.438922745866962671e-01 8.717536092017730276e-01 -6.062892648880364721e-01 7.090223196029892261e-01 9.545534153434144242e-01 -9.350891359863567898e-01 1.780856605557227690e+00 1.241133201463101576e-01 9.945284130433588998e-02 2.761570481325743565e-01 -1.422921507678511777e+00 4.141831216944120708e-01 3.381134351825172968e-01 6.115574552614132242e-02 -4.987271642193129989e-02 -7.577858621220047164e-01 1.297504124009811743e+00 -6.772635391588586184e-01 -1.015296755922806105e+00 -4.104437092595467629e-01 6.360765234296267279e-01 1.460890530693581546e-01 -2.959082626022082607e-01 1.795365340685077526e-01 -1.035677376445833353e+00 -3.150228719296029323e-01 -6.193273290087749627e-01 -2.676775499132496433e-02 -4.843593255445919343e-01 -1.708179232553694582e-01 1.632146569927293289e-01 2.145385040377615626e-01 1.381587424848568779e-01 5.493573276319699272e-02 -6.342829218657088930e-01 5.791666976607301454e-02 1.471937018307137413e+00 -4.727754773707454339e-01 -6.392904023787341350e-01 3.155201232806087996e-01 5.943619173321094268e-02 -9.733270963918876362e-01 1.193016548498962548e+00 -4.921029740397289687e-01 4.148690920173095376e-01 -5.103799179578283329e-01 -4.810400313659538574e-01 -1.962785294005134906e-01 1.630387935366341967e-01 2.138222975417108707e+00 4.115693382226821018e-01 8.509940080730669931e-02 -1.053259094069661783e+00 -2.727765616987453123e-01 -1.691636754826849331e-01 4.141532968977643635e-03 -1.347044653903563649e+00 1.145662998952499539e-01 -3.469343759013951423e-02 -6.800213044075085200e-01 -1.032665071984413929e+00 -2.242464753465930993e+00 -4.669478149499081687e-01 -2.301262797395006832e+00 5.280068869972602830e-01 -1.085900277118059254e-01 -2.635303605173215380e-01 -2.046446933925769152e+00 -7.291746261654717953e-01 -5.746019611117340053e-01 -5.133567411956495574e-01 6.054983935562401332e-01 7.551849341660711312e-01 -5.121688915360594896e-02 9.815217163811635892e-01 -9.260784478543234721e-01 9.981948061485004797e-02 8.322444953942909063e-01 -5.546604850083128868e-01 7.381071527614625760e-02 -1.511232730552398429e-01 -1.650532014398714553e+00 5.428354673581254897e-01 -9.436514237274104544e-02 -3.971171673643363320e-01 1.792722246637331873e-01 2.195778662299618100e-01 -2.699123527793009236e-01 1.452117926714098506e-01 3.494648556307642928e-01 9.199216842290977025e-01 1.196541016709711691e+00 -1.262627623874731375e+00 3.758248336610265361e-01 -2.506033680530641572e-01 -1.044515800666194316e+00 -1.322077699565002318e+00 9.881741886954997778e-01 6.040071537238543842e-01 -2.082022774120175501e-01 -8.857229268868047622e-01 1.589168523737302996e+00 -4.428509219204492808e-01 7.329289509986609830e-02 -3.754767062932592436e-01 -1.475300021239483339e+00 -7.512007527104416216e-01 3.544779925707398638e-01 -3.767370610619411031e-01 -1.398209092552720190e+00 -6.868095309686550465e-01 -2.453520441164123600e+00 -4.628921568264506292e-01 1.116713920040836472e+00 9.060207578881028512e-02 -2.169626429404626577e+00 -8.958397035979626111e-01 6.420147432863133607e-01 2.097459677488527352e-01 -1.280163061641692579e+00 4.703966927277741239e-01 -3.242469616238568414e-02 1.386323396867973345e-01 2.756006614089048790e-01 -8.662869296644992723e-02 -4.488441633847445322e-01 -8.389535319781314948e-01 7.168631557975473356e-01 8.693532272922636084e-01 2.079410533310340758e-01 -7.850462404786487935e-01 4.249966673617365243e-01 1.984212867734622909e+00 1.043550608540198210e+00 -1.115036018119086453e-01 -1.576158227530684852e-01 9.178529746271363310e-02 1.175787586228588033e+00 8.250052973390058220e-02 -2.545691918321362213e+00 1.380493677564608612e+00 3.025499362832754224e-01 -8.954432394908008741e-02 -3.849455650082771879e-02 -6.804265102654120101e-01 5.288347822145503807e-01 4.833447682379376498e-01 -2.039656136261463332e-02 -4.596191425046797785e-01 -1.175348956029613895e-01 7.995349210018564134e-01 -5.653557599303101755e-01 -5.129777605899707993e-01 3.653074790776518199e-01 -1.511850309531258985e+00
-2.257325729726603059e-02 9.730211351159328004e-01 -2.432926933299507932e-01 8.016699650653273945e-01 -3.565703563217666461e-01 -9.672243259330067788e-01 -8.029267202895863376e-01 -1.360582026257835420e+00 5.689403919549865796e-01 6.934290931625524124e-01 3.536027890553189446e-01 5.836044217136573953e-02 2.872014788636026439e-01 6.592159376425675843e-01 1.494142607852625648e+00 6.748153347305867467e-01 -1.300342107677031622e+00 1.514019806377064348e-01 6.954525513489102917e-02 7.892978166628439318e-02 6.941052932934446695e-02 1.556536082439647251e+00 1.251767284129907780e-02 -4.141651239722971001e-01 1.769695446742767797e-01 -1.307868755065525190e-01 -3.567158807605822490e-01 -2.150825494662664539e-01 -7.284624305903495411e-01 7.451997979366686842e-01 4.250876844135752508e-01 -5.064826397889828913e-01 -9.729568575369505756e-02 9.560605960153876204e-01 -2.310424152172174395e-01 1.738831924418700325e-01 1.966996760980045111e-01 2.932070616230625371e-01 3.345617132782798264e-01 7.020556584825883295e-01 -3.125196458937222199e-01 -6.574845567751045339e-01 2.256312715081844333e-01 -1.069243128190310088e+00 1.509422673928261238e-01 5.615752098448963114e-02 -9.969683899415211492e-01 -4.481324820302542977e-01 6.962948447438924715e-01 1.004936752852779724e+00 1.143626685250344983e-03 -4.748519002821846580e-02 -1.053380964359411920e-01 1.465881556146387377e+00 6.680307077138631922e-01 -1.917287052498412303e-01 8.225576071313656090e-02 4.359223131268057938e-01 3.344964072580339232e-01 3.518940338956575986e-01 5.070811926044646034e-01 -3.262010000249140895e-02 7.748405035981795752e-01 5.445750757556983013e-02 -5.201495957424828037e-02 -2.593723724881245030e-01 -3.436639326827835572e-01 -8.879407604720047920e-02 9.019429882774753285e-03 -8.487597194276476076e-01 -2.440336852604569826e-02 2.285890685826268698e-01 -1.244989856202030482e-01 -7.116114204843900781e-01 -8.446999475391353540e-02 3.567169092018459553e-01 1.349911433926167525e-01 5.002446293039235492e-01 -1.240300164039493114e-01 9.639435983017581311e-01 -7.002039499872707295e-02 -8.304544933747962654e-01 -3.372166344005583238e-01 3.449032044055593688e-02 8.298492556911002405e-01 2.418760154891842762e-01 -1.418606168135966739e+00 -2.218831173225775111e-01 3.407328750811977613e-02 5.487716303322847100e-01 7.392075849136370280e-02 -5.803092959047166932e-01 -7.236853209203963910e-01 2.134632686965482265e-02 2.224852696824822507e-01 3.967397294205531888e-01 -4.607663687343530601e-01 9.765507455330003639e-01 -7.156974176251271746e-01 -1.265687236634281398e-01 5.148078718187504288e-01 -9.031467787766531696e-01 2.071337269390183256e-01 1.053360395534137656e-01 -1.514896038333748862e+00 6.344238183188378732e-01 -6.556210212052540065e-01 -1.558213470140765056e+00 2.399949964178507700e-01 -1.340058966619783873e-03 5.383890015544565699e-01 -5.250912560146302477e-01 7.938075316042313145e-02 1.408650856703211662e+00 -9.371367625424119607e-01 1.801412575315717857e-01 1.067959119272562513e-01 -1.080949360874538634e+00 6.486543600848532209e-01 -1.339195590178895667e+00 1.141015472881774517e+00 -1.032565313181833672e-01 -7.711144608997425598e-01 -3.667915198211916250e-01 -1.337266748588799459e+00 -6.915084791025659372e-02 2.818515274097606604e-01 1.422897853529446532e+00 -1.392332064951224524e+00 -1.431238512178169886e+00 1.077112246519620342e+00 1.150794406637802192e+00 -1.567853564326191496e-01 1.442322023677219178e+00 -6.962886740963101229e-01 -7.681258105873886022e-01 -3.452749859223920859e-01 5.198744877044392254e-01 -5.603842748615149860e-01 1.401708363952508085e+00 9.269701064299638860e-02 -9.217224848818614813e-01 -9.814620667878681814e-01 -4.100852974791422967e-01 -8.057955571947174045e-01 -8.264410013431509050e-01 8.456481703842798625e-01 -4.288049853612706519e-01 1.184308222098461316e+00 9.050637932922165341e-01 3.371369302026205328e-01 2.180655433516698882e-01 2.193418389599393892e-01 8.111455086485593879e-01 -4.447113721665085229e-01 1.304114944452967828e+00 -1.532164595592776513e+00 7.618091243456550643e-01 -4.015492349903132530e-01 7.533291119056986229e-01 2.434670141241503383e-01 -1.830122541633567135e+00 -6.480712338883271029e-01 8.633306752519523952e-01 -1.651666385112591506e-01 4.184449822912442718e-01 1.056569132276926337e-01 -9.923774281403002773e-01 -6.657424259020987556e-01 -2.201609924264878726e-01 5.487428339769006014e-01 -4.862269748794971203e-01 -5.349786903239798219e-01 3.440979348960709894e-01 -5.634032641911485007e-01 -8.637723907747177354e-02 1.717234657880699344e-01 -1.791205295773352912e-01 -5.918926298579313405e-01 -2.609643995643542436e-01 -1.557759413322835074e-01 -1.239793142496481870e+00 7.818159064693220861e-01 -5.502392160156049927e-01 2.824562508728246935e-02 -3.346799840236069357e-01 9.377430286673715809e-01 -7.087297280634625718e-01 2.323233388111736186e-01 7.042776058328431565e-01 6.337316773483580024e-01 1.784493173865721261e+00
-3.069161836683746980e-01 -8.369907518263326462e-01 3.500366689733894754e-01 -7.836033373856574613e-01 2.417967226677518955e+00 2.744248445121002522e+00 2.485511135113222247e-01 4.493311303231133091e-02 -4.932609989026712910e-02 -1.163181981659241471e+00 3.286851998974160693e-01 2.292015053551687831e-01 2.568881726156225120e+00 -7.282274317615908821e-01 -4.617963526599630497e-01 9.765049798967649674e-04 -4.152089918549671244e-01 7.758869425840089762e-02 8.920344709222196578e-01 1.118967234849634451e+00 1.345355439127912778e+00 9.959384060159112151e-01 9.757789003645827020e-01 6.899596465594121097e-01 -6.191730628192178287e-03 1.415507474608395322e+00 4.684956190517982622e-01 -7.377163450812512790e-02 1.973829210515531507e+00 1.690133687919930683e+00 -4.131315405022641940e-01 -4.120665895736879691e-01 4.509766363450562476e-02 1.580374836711913589e-01 -7.066579331377100814e-01 2.775634415607037275e-01 8.091385055224209477e-01 -1.582046053765449323e-01 3.565107067284712383e-01 -2.306423515656325640e-01 1.190039725261141434e+00 4.609802845172056296e-01 4.035140720246394586e-01 -9.287395396241843182e-01 2.944298782856188401e-01 1.711346831645934596e-01 2.702602230367522562e+00 3.111718736176246058e-01 1.168017712481226322e+00 -2.050043393024978122e-01 -5.624766386125419348e-01 1.617229029397116991e-01 -1.203050021467759745e-01 9.702736542799199615e-01 1.240216860297131962e+00 -1.588823481693326933e-01 5.412321274279947581e-01 4.438973609062786263e-01 -5.447679084926447812e-01 1.474003156805939185e-01 2.091618131110629941e-01 1.113045984273799277e-01 2.507187591628528889e+00 2.317648952049767563e-01 2.287680687845763394e+00 7.148695224078372226e-03 1.981194392625621470e-01 -3.461476183346536700e-02 7.421232158962670113e-03 1.225323488136653038e+00 -1.443931534254932038e-03 1.202340911216428720e+00 8.778126709069459244e-01 1.039300060797267111e+00 2.524926146545073968e-01 -8.514588635242658077e-01 8.681278395265479286e-02 5.117832260621666407e-01 -2.048629800508002585e+00 -9.307532276185371822e-01 -6.692113582846072051e-01 2.474635368749442815e-02 1.421687378162054483e+00 -1.583599000073658003e-01 -7.347595764480724378e-02 -1.686623103666241852e-01 2.141130893090261722e+00 5.178849680797837918e-01 1.986524289474820737e+00 -1.527697560963833245e+00 -2.126502858775820293e-01 1.182057992613454234e+00 3.254286406358646300e-01 1.811938671649833965e-01 2.768301629396754393e-01 2.867242821172391598e-01 -3.047588738515442763e+00 -2.773126047364837810e+00 2.472532206365146701e-01 -8.384819916587182842e-01 -1.386688493516591958e+00 5.727358544387243233e-01 -5.637585906477617925e-01 -5.929030733995306335e-01 -6.887661404728716574e-01 -3.564042630576768067e-01 6.849984459032541773e-02 -4.004899404886875236e-01 -4.060121558542016951e-01 1.077608469429362392e+00 -1.819212322487453903e+00 1.532405250848485556e+00 4.659276012163034997e-01 -2.147905235694347770e+00 3.269563901331122846e-01 -3.316783753513303346e+00 -9.368117751030782259e-01 6.129859601767123634e-01 -3.768069950678737401e-01 -1.400374475633470617e+00 -4.344033053802996980e-01 -2.053556034161194255e+00 -3.642985781979480309e-01 7.910384535016803387e-01 6.187565441074135419e-01 1.525637078891981746e+00 8.816826953823029070e-03 1.148210447962719982e+00 -5.275913967267196192e-01 -1.310653259787031732e+00 -2.827221029394947904e-01 -8.210694526227709789e-01 -4.277688307880784802e-01 -1.725787689650379431e+00 -1.497328204666980855e-01 3.546636262188402888e-01 4.682487931485067034e-01 -4.311400612505341123e-01 1.797591916021019087e-01 -1.340981478433335816e+00 -1.155752007749537152e-01 4.423377297298558553e-02 6.983018478700309117e-01 -1.733163670393738531e+00 3.085323791143017259e-04 -2.801540851040000835e-01 -9.607029798797942499e-01 -1.079225179095921305e+00 -8.726051585681283695e-01 -4.464211557674336306e-01 5.906564434589467449e-01 -1.062417877743669692e+00 -3.138932834676022576e+00 -4.150022751609605542e-01 1.317251738935022676e+00 7.945829763170718651e-01 -9.433999698384323285e-01 -2.190921848431727881e+00 -9.938157032476048203e-01 8.274478453403272260e-02 -1.094618373710565695e+00 3.891986838543677885e-01 -6.189519479475192876e-01 -8.790396013345572190e-02 5.816560397395506010e-01 -1.372666211106478906e+00 1.716458184726594727e-01 3.724505178747797851e-01 9.970223831078660337e-02 1.392854513113191306e+00 4.842220286358860371e-01 -1.817996190693111636e-01 -7.508438835919327703e-01 -9.857969467144240827e-01 2.088598113339732887e+00 4.142304299925429478e-01 -1.369679617676652583e+00 1.225457185500935964e+00 8.720107195177013715e-01 -4.578162849693885317e-01 -8.345430616186924055e-01 -2.150750932671045224e+00 -6.736285135122602741e-01 7.651474446876719293e-01 -1.029623971167610424e-01 -1.901361639529795811e-01 -7.579570975924131426e-01 -1.812267772854222747e-01 9.973067471172830656e-01 -1.679573138803480026e+00 -2.988825147368701085e-01 -2.534439228234431490e-02
-2.553876768118632304e-02 1.263454490650757656e+00 -1.532824854884081156e-01 -7.177162478257984590e-01 -7.541261538850771995e-01 -2.262149119253423213e-01 1.109159504738222779e+00 -5.848776319981358052e-01 1.424697111520314641e+00 3.809243596671540444e-01 3.852551258286551761e-01 3.970770581550515099e-01 -2.108674829469332768e-01 -6.677566281170831120e-02 1.991611988406415845e+00 -6.674866622853582454e-01 -9.018555707700597057e-02 2.989498776396433688e-01 -1.492542867466917889e+00 -5.261222683815037771e-01 -1.158230551195088692e-01 -1.580349125680320654e-01 2.645609615076897292e+00 -1.559435772582689894e-01 -1.218810883834181846e-01 1.373570210977283601e+00 -5.777628753357599845e-01 8.168703269430252489e-02 2.566603728757097524e+00 1.313412567697577193e+00 2.399492307816154801e-01 -2.744256672651111950e-01 5.903587097131014483e-01 5.822911022198942188e-01 -1.122688649562384899e+00 -3.191767461937451006e-02 -1.161984361807645999e-01 1.633432121506936396e-01 -2.579546662060942519e-01 -8.933755583301030700e-01 -6.317149040302141860e-02 -3.992064457915719955e-01 -1.116253178354692288e+00 4.495928686247285810e-01 2.396268144454410248e-03 -6.676064756925809140e-01 5.128342930336826644e-01 -4.278094542179952109e-01 2.183020848423241900e-01 -7.462472653637615416e-02 4.890068516153169287e-01 -2.974056730821762473e-01 -1.467654588885030753e+00 1.077425921105052975e+00 9.315831797183545815e-01 -5.283853533823071880e-01 -8.442273787784584371e-01 1.503154324425922395e-01 9.088777677187013238e-01 3.227768048373772514e-01 7.478809443111719135e-01 1.241801688284515925e-01 -1.299558949654713302e+00 -5.056382895114734655e-02 1.917425892069013760e-01 -1.318044152928714574e+00 -1.434317665321730662e+00 8.609884002738430464e-01 -1.002927178623481907e+00 4.333897765149091752e-01 -4.459290466227462391e-01 6.149374274746103319e-01 1.405922916251209465e+00 -1.957175146911572725e-02 4.751892290166829791e-01 -6.216937723565817420e-01 5.506480214179314964e-02 1.024116668200420327e-01 -2.980114249865040144e-01 -6.288918327613183222e-03 -5.905757108197450256e-01 8.919773924320834046e-02 1.245766329356134683e-01 -1.243546438888407213e+00 -6.955014023089368669e-01 -2.106612804735585043e-01 6.340191266815662363e-01 7.111619916521468021e-02 -1.923066892400486783e-01 -5.979902581104936665e-01 -7.598278322511095029e-01 -5.103614060150815090e-01 -3.745187132561093035e-01 -6.169171769072604450e-01 3.226297377366660890e-01 1.244146534365784540e-01 -2.789816620633657762e-01 -1.395121711879049542e+00 -1.368433661085662612e-01 9.485380623919491550e-01 -9.887588575539213442e-01 -6.677165189077983731e-01 -8.016555668876352847e-01 -5.256635835778872279e-01 -9.337603898736378527e-01 7.356121542556915971e-01 -2.949286722985203224e-01 -1.495019354029941905e+00 3.572033619195828513e-01 3.042232102193386245e-01 -1.122204253727175499e-01 8.937761362023198819e-01 -1.531025082672581028e-01 4.228297416190903713e-01 1.623636218470057013e+00 -4.936631194367835929e-01 2.847954405271429512e-01 -2.999783189033577435e-01 -8.083810585316952846e-01 -2.711655084591367837e-01 -8.669168499385243587e-01 -4.323937311510018811e-01 3.149364828634509395e-01 7.406294049607220487e-01 -1.391002290397241659e+00 5.890788145604088921e-01 3.973691354739464221e-02 2.146263329216827387e+00 -1.123955689199281016e+00 1.290678359342539716e-01 8.077665648766259032e-01 5.866033564386484711e-01 1.979529346219667918e+00 -7.727995619103383840e-01 8.667548704394892334e-02 -6.857132125815356138e-01 3.388472280241774937e-01 1.345622833856478795e-01 1.122856285488370354e+00 -2.537845939920485794e+00 3.523300929914724433e-01 -1.102727118854321287e+00 2.155890567886457609e-01 3.515829304133839817e-02 -2.720327929768270980e+00 -6.868074740861277450e-01 -2.802404741701521873e-01 -5.152264474130822114e-01 -4.061211706281553924e-01 7.421463558247006764e-01 -3.756942216205348406e-01 1.981729182082752894e-01 6.038215200757538481e-01 -1.248204249371769547e+00 -5.393644780930895166e-01 1.754603071197759767e-01 9.409522796307920878e-01 4.416918686162432106e-01 -1.614945889791671030e-01 1.430013638633085726e+00 6.645782303915741540e-01 7.027004911549372679e-01 1.362391054440708960e+00 1.117350010962443740e-02 5.478470616362055567e-01 5.005541901243015790e-01 -1.122829546015513769e+00 -4.727034864822854399e-01 1.060646901887553756e-01 1.083685014636018629e+00 2.711238565879564022e-01 -6.269074553429815344e-01 9.481961056717641556e-01 8.826237191386016034e-02 4.848874301335092118e-01 -8.500349865946535965e-01 -1.298355159155535565e+00 1.227950127124179502e+00 7.822211123272254651e-01 4.834033893899693929e-02 -1.078555663833243417e+00 -1.778678881181312565e-01 -1.098030741823569911e-01 2.988480619545356154e-01 2.997443485158627352e-01 4.717202966341745712e-02 1.411094947366428931e+00 -2.497626173199777311e-01 5.447617378450624326e-01 -1.213215134918312232e+00 5.744728917331378693e-01 2.430931757247901670e-01