6.580559999999999743e-01 1.088640000000000008e+01 3.372290000000000010e+00 9.990420000000000300e+00 5.480369999999999742e+00 3.110850000000000115e+00 1.173419999999999952e+01 6.018650000000000055e+00 5.922649999999999970e+00 1.143640000000000079e+01 7.054799999999999960e-02 1.190760000000000041e+00 1.501130000000000075e+00 8.860640000000000072e+00 2.607139999999999791e+00 9.031090000000000728e+00 6.780739999999999768e+00 7.348239999999999661e+00 8.843980000000000175e+00 7.138869999999999827e+00 6.725360000000000227e-01 6.864709999999999646e+00 3.949019999999999975e+00 6.639800000000000146e+00 1.143110000000000070e+01 7.644820000000000171e+00 1.249409999999999910e+00 3.964139999999999997e+00 1.123760000000000048e+01 8.132189999999999586e+00 1.078200000000000003e+01 9.661569999999999325e+00 5.510550000000000281e+00 9.120669999999999611e-01 6.598559999999999981e-01 7.715209999999999901e+00 3.649569999999999759e-01 2.803850000000000176e+00 1.118769999999999953e+01 1.049050000000000082e+01 7.574990000000000334e-01 3.706700000000000106e+00 1.113519999999999932e+01 4.359770000000000145e+00 7.978670000000000151e+00 7.941729999999999734e+00 1.906309999999999949e+00 1.060870000000000068e+01 1.183700000000000030e-01 1.025000000000000000e+01 8.502190000000000580e+00 6.423199999999999577e+00 8.792699999999999960e+00 1.181220000000000070e+01 1.003889999999999993e+01 2.519149999999999778e+00 8.533739999999999881e+00 6.372069999999999901e+00 5.813909999999999911e+00 4.694270000000000387e+00 9.631240000000000023e+00 1.003149999999999942e+01 2.329330000000000123e+00 4.604369999999999852e-01 7.330129999999999590e+00 3.872770000000000046e+00 6.201439999999999841e+00 8.078680000000000305e+00 6.751350000000000406e+00 7.305390000000000494e-01 4.330479999999999663e+00 3.205690000000000150e+00 1.140959999999999974e+00 2.997739999999999849e+00 8.306760000000000588e+00 7.734490000000000087e+00 1.129139999999999944e+01 4.616609999999999658e+00 8.980880000000000862e+00 2.625819999999999821e-01 6.450169999999999959e+00 7.211050000000000182e+00 4.508939999999999948e+00 1.142169999999999952e+01 4.269849999999999923e+00 1.882509999999999906e+00 7.804840000000000444e+00 6.959710000000000285e+00 7.884660000000000224e+00 2.235720000000000152e+00 5.449300000000000033e+00 1.162289999999999957e+01 2.148699999999999832e+00 6.063320000000000043e+00 1.509889999999999954e+00 4.397759999999999891e+00 7.958199999999999719e+00 7.882990000000000386e+00 1.006279999999999930e+01 2.763479999999999936e+00 9.320410000000000750e+00 4.042040000000000077e-01 1.077689999999999948e+01 2.741830000000000211e+00 1.461929999999999952e+00 2.901180000000000092e+00 4.618329999999999935e-01 3.545580000000000176e+00 1.051529999999999987e+01 2.626930000000000098e-01 1.027410000000000068e+01 1.108810000000000073e+01 9.186510000000000176e+00 1.121449999999999925e+01 1.710050000000000070e+00 5.288230000000000430e+00 1.095020000000000060e+01 3.902029999999999887e+00 6.239930000000000199e+00 3.978979999999999961e+00 4.663070000000000270e+00 9.246869999999999479e+00 2.913990000000000080e+00 8.195439999999999614e+00 4.445369999999999600e+00 8.857659999999999201e+00 4.889149999999999885e+00 7.002360000000000362e+00 1.146129999999999960e+01 5.724190000000000111e+00 1.059190000000000076e+01 6.044069999999999609e+00 1.534059999999999979e+00 1.101440000000000019e+01 5.969420000000000393e+00 7.651939999999999742e+00 1.941349999999999909e+00 7.846070000000000100e+00 2.996560000000000112e+00 3.654949999999999921e+00 5.075040000000000440e+00 2.056189999999999962e+00 7.564400000000000013e+00 6.440540000000000376e+00 9.041159999999999641e+00 8.414249999999999119e+00 4.269309999999999938e+00 9.288299999999999557e+00 3.116049999999999986e+00 4.938390000000000057e+00 2.674490000000000034e+00 6.228180000000000049e+00 1.631420000000000092e+00 6.048490000000000144e+00 3.922089999999999854e+00 1.847869999999999902e+00 7.747419999999999973e+00 1.086180000000000057e+01 1.107339999999999947e+01 8.768029999999999546e+00 9.187119999999999731e-01 1.539819999999999967e+00 3.276759999999999895e+00 2.504779999999999784e+00 1.616929999999999978e+00 9.411960000000000548e+00 9.909750000000000725e+00 8.131859999999999644e+00 4.140489999999999782e+00 8.130760000000000431e+00 8.372149999999999537e+00 5.058270000000000266e-01 1.835299999999999931e+00 5.091300000000000381e+00 3.159219999999999806e-01 7.351740000000000386e+00 8.441380000000000550e+00 4.090790000000000148e+00 3.094599999999999795e+00 1.047090000000000032e+01 1.040070000000000050e+01 4.936359999999999637e+00 1.032840000000000025e+01 4.721860000000000390e+00 6.093680000000000208e-01 1.048600000000000065e+01 4.414060000000000095e+00 4.669550000000000090e+00 7.609989999999999810e+00 1.568529999999999980e+00 1.154229999999999912e+01 1.112299999999999933e+01
5.683019999999999960e+00 2.837889999999999802e+00 5.557830000000000048e+00 3.540860000000000118e-01 4.188589999999999591e+00 7.229000000000000092e+00 5.056210000000000093e+00 9.504459999999999908e+00 9.738640000000000185e+00 1.610130000000000061e+00 5.194549999999999557e+00 5.221680000000000099e+00 5.688600000000000101e+00 6.035219999999999807e+00 3.432230000000000003e-01 7.299509999999999721e+00 9.131690000000000751e+00 8.799139999999999517e+00 9.516659999999999897e+00 8.270830000000000126e+00 4.265439999999999898e+00 1.110929999999999929e+01 1.075830000000000020e+01 3.058920000000000083e+00 5.694090000000000096e+00 8.415869999999999962e+00 6.434639999999999915e+00 1.044319999999999915e+01 1.159029999999999916e+01 8.370100000000000762e+00 7.864860000000000184e+00 1.010440000000000005e+01 3.129859999999999864e+00 8.224399999999999267e+00 3.392990000000000173e+00 3.730100000000000193e+00 5.576690000000000147e+00 1.279279999999999973e+00 3.857260000000000133e+00 8.737859999999999516e+00 4.463300000000000267e+00 9.646890000000000853e+00 4.685200000000000031e+00 4.257970000000000255e+00 4.016499999999999737e+00 1.084609999999999985e+01 1.897620000000000084e+00 6.163310000000000066e+00 2.359980000000000189e+00 9.729300000000000448e-02 1.112229999999999919e+01 2.309029999999999916e+00 5.196740000000000137e+00 2.197389999999999954e+00 8.896300000000000097e+00 6.571150000000000269e+00 8.035099999999999909e+00 3.019769999999999843e+00 3.206999999999999851e+00 1.190039999999999942e+01 3.003229999999999844e+00 2.709600000000000009e+00 5.292180000000000106e+00 9.415070000000000050e+00 6.929870000000000196e+00 1.689119999999999955e+00 1.556299999999999906e-01 5.275179999999999758e+00 9.645459999999999923e+00 7.950090000000000323e+00 1.160709999999999936e-01 8.406570000000000320e+00 5.149110000000000298e+00 1.208009999999999984e+01 1.291239999999999943e+00 8.002069999999999794e+00 9.812099999999999156e+00 6.597269999999999968e+00 7.019800000000000040e+00 2.553469999999999906e+00 8.799870000000000303e+00 3.647980000000000000e+00 9.735780000000000101e+00 1.169759999999999955e+01 1.074050000000000082e+01 1.053889999999999993e+01 3.607310000000000239e-01 1.176219999999999999e+01 4.258890000000000065e+00 1.234650000000000070e+01 3.813870000000000093e+00 6.453689999999999927e+00 4.561960000000000015e+00 2.691180000000000239e-01 2.264609999999999790e+00 3.351960000000000051e+00 1.055610000000000070e+01 1.068750000000000000e+01 5.742659999999999876e+00 4.457169999999999632e+00 1.019919999999999938e+01 3.975130000000000052e+00 1.252350000000000074e+00 9.451330000000000453e+00 1.010500000000000043e+01 2.803269999999999929e+00 8.502340000000000231e+00 7.101810000000000400e+00 7.004909999999999748e+00 6.512089999999999712e+00 1.042549999999999955e+01 4.809240000000000181e-01 8.693030000000000257e+00 2.563019999999999854e+00 3.233750000000000124e+00 8.214859999999999829e+00 1.686749999999999972e+00 8.860340000000000771e+00 4.063310000000000421e+00 6.949629999999999974e+00 1.025570000000000093e+00 7.259059999999999846e+00 1.239760000000000062e+01 1.158169999999999922e+00 1.199810000000000088e+01 8.535809999999999675e+00 8.842900000000000205e+00 5.317340000000000400e-01 2.750710000000000210e+00 5.812050000000000161e+00 3.815560000000000063e+00 1.899659999999999904e+00 6.507360000000000255e+00 6.454519999999999591e+00 3.836180000000000145e+00 1.149859999999999971e+01 1.533320000000000016e+00 1.208799999999999919e+01 9.042059999999999320e+00 8.351739999999999498e+00 1.151169999999999938e+01 2.570219999999999949e+00 1.801449999999999996e+00 2.317210000000000214e+00 6.217150000000000176e+00 9.344699999999999562e+00 1.348740000000000050e+00 4.489519999999999733e+00 1.133970000000000056e+01 6.599649999999999572e+00 1.174450000000000038e+01 2.569189999999999863e+00 9.412140000000000839e+00 1.135229999999999961e+01 8.533060000000000755e+00 8.091670000000000584e+00 2.773280000000000189e+00 4.371850000000000236e+00 7.846829999999999750e+00 8.018660000000000565e+00 1.023660000000000014e+00 5.597999999999999865e+00 1.167489999999999917e+01 7.313790000000000013e+00 5.736900000000000333e+00 4.908579999999999721e+00 2.578559999999999963e+00 1.064170000000000016e+01 3.566749999999999865e+00 5.817650000000000432e+00 1.030979999999999919e+01 6.829790000000000028e+00 1.092929999999999957e+01 1.129630000000000045e+01 1.670060000000000100e+00 1.178899999999999970e+01 5.141300000000000203e+00 8.494419999999999860e+00 1.564179999999999904e+00 1.092489999999999917e+01 8.408970000000000056e+00 5.395699999999999719e+00 1.207290000000000063e+01 5.574160000000000004e+00 5.447409999999999641e+00 6.573450000000000237e+00 1.104920000000000080e+01 4.340060000000000251e+00 2.990250000000000075e+00 5.261519999999999975e+00 4.696800000000000280e-02 9.017820000000000391e+00
3.161760000000000126e+00 1.030829999999999913e+01 1.154930000000000057e+01 6.588149999999999729e+00 1.460790000000000033e+00 2.530759999999999899e+00 1.065770000000000017e+01 6.591639999999999944e+00 4.066690000000000360e+00 4.931379999999999875e+00 5.354980000000000295e+00 3.128379999999999939e+00 1.462399999999999922e+00 5.188840000000000119e-01 1.120609999999999928e+01 2.342379999999999907e+00 1.015489999999999959e+01 3.715619999999999923e+00 1.058440000000000047e+01 6.899859999999999882e-01 1.171439999999999948e+01 5.458800000000000097e+00 8.593469999999999942e+00 2.233960000000000168e+00 4.176070000000000171e+00 2.489199999999999857e+00 2.905670000000000197e+00 4.024339999999999584e+00 1.047680000000000078e+01 2.208790000000000031e+00 9.351730000000000320e-01 7.916159999999999641e+00 9.309829999999999828e+00 8.220779999999999532e+00 3.437790000000000123e+00 1.012850000000000072e+01 5.810579999999999856e+00 1.076040000000000063e+01 9.128840000000000288e+00 9.380990000000000606e+00 7.383919999999999817e+00 7.710530000000000328e+00 4.788640000000000119e-01 6.271320000000000228e-01 6.585880000000000400e+00 5.599470000000000169e+00 1.537989999999999968e+00 7.134509999999999685e+00 2.788440000000000030e+00 4.902989999999999959e+00 6.146829999999999572e+00 1.210420000000000051e+01 2.795040000000000191e+00 7.365179999999999616e+00 4.353869999999999685e+00 7.357350000000000279e+00 5.222930000000000073e-01 1.128759999999999941e+01 1.375329999999999941e+00 3.512039999999999829e+00 3.018440000000000012e+00 7.269689999999999763e+00 4.549789999999999779e+00 1.182779999999999987e+01 8.317569999999999908e+00 2.480480000000000018e+00 9.779680000000000817e+00 2.729309999999999903e+00 5.863109999999999822e+00 1.126590000000000025e+01 5.006179999999999630e+00 6.123459999999999681e+00 4.173879999999999590e+00 7.500959999999999850e-01 7.532090000000000174e-01 6.014820000000000277e+00 7.694860000000000255e+00 8.380950000000000344e+00 3.585570000000000146e+00 8.193429999999999325e+00 9.860659999999999314e+00 1.788689999999999891e+00 1.142179999999999973e+00 2.077920000000000211e+00 1.138799999999999990e+01 3.896999999999999797e+00 3.443709999999999827e+00 5.936479999999999535e-01 1.085619999999999941e+01 9.454900000000000304e+00 3.216140000000000110e-01 3.133869999999999933e+00 1.273849999999999927e+00 8.027919999999999945e+00 6.946240000000000414e+00 5.749069999999999681e+00 2.856759999999999966e+00 2.882979999999999876e+00 1.170270000000000010e+01 5.991609999999999658e+00 9.102899999999999991e+00 1.144829999999999970e+01 8.841210000000000235e+00 8.588100000000000733e+00 1.499659999999999993e+00 7.457080000000000375e+00 1.038809999999999967e+01 7.319139999999999979e+00 1.008660000000000068e+01 6.024259999999999948e+00 1.000569999999999915e+01 8.995110000000000383e+00 1.250839999999999952e+00 8.827899999999999636e+00 7.674249999999999794e+00 6.924649999999999750e+00 1.168329999999999913e+01 3.069299999999999806e-01 1.065099999999999980e+01 1.727109999999999923e+00 1.755300000000000082e+00 5.250280000000000058e+00 9.066470000000000695e+00 2.306490000000000151e+00 8.109880000000000422e+00 1.604729999999999990e+00 3.035800000000000054e+00 1.081589999999999918e+01 8.329700000000000770e+00 1.174179999999999957e+01 9.318730000000000402e+00 7.581870000000000331e+00 5.325029999999999930e+00 5.271200000000000330e+00 6.439490000000000158e+00 1.158699999999999974e+01 3.123650000000000038e+00 9.931010000000000559e+00 9.924569999999999226e+00 1.139889999999999937e+01 5.374229999999999841e+00 8.777440000000000353e+00 2.880240000000000133e+00 8.011200000000000543e-01 1.125309999999999988e+01 5.965329999999999799e+00 1.496590000000000087e+00 9.655519999999999214e+00 9.981370000000000076e+00 1.042440000000000033e+01 8.798859999999999459e+00 4.681689999999999685e+00 7.396130000000000315e+00 5.924389999999999823e+00 1.177609999999999957e+01 4.657479999999999620e+00 5.670160000000000089e+00 5.268609999999999793e+00 9.358459999999999113e+00 2.516179999999999861e+00 2.137500000000000178e+00 6.093750000000000000e+00 7.615680000000000227e+00 4.795469999999999899e+00 3.643949999999999800e+00 5.113319999999999865e+00 8.857659999999999201e+00 4.821349999999999802e+00 9.354440000000000310e+00 1.137250000000000050e+01 2.074669999999999792e+00 2.597370000000000179e+00 7.632119999999999571e+00 7.097809999999999953e+00 2.320650000000000102e+00 4.945280000000000342e+00 2.114040000000000141e+00 4.779630000000000045e+00 2.029040000000000177e+00 9.726710000000000633e+00 5.442899999999999849e+00 4.495049999999999990e+00 6.929669999999999996e-01 7.659709999999999575e+00 1.133830000000000027e+01 1.184190000000000076e+01 1.212449999999999939e+01 8.543449999999999989e+00 1.129640000000000022e+01 3.991870000000000140e-01 7.836739999999999817e+00 5.009450000000000180e+00
1.062140000000000029e-01 6.972550000000000026e+00 1.750059999999999949e+00 7.729559999999999764e-01 1.113129999999999953e+01 8.608290000000000219e+00 5.786349999999999660e+00 1.061979999999999968e+01 5.497220000000000439e+00 9.512679999999999580e+00 1.062359999999999971e+01 9.830909999999999371e+00 8.275219999999999132e+00 1.143870000000000076e+01 5.480800000000000338e+00 5.604619999999999713e+00 1.811439999999999939e+00 7.323129999999999917e+00 1.192220000000000013e+01 3.895739999999999981e+00 1.039310000000000045e+01 1.225239999999999974e+01 6.440220000000000056e+00 1.150210000000000043e+01 4.061980000000000146e+00 5.404840000000000089e+00 7.062599999999999767e+00 6.926789999999999559e+00 3.225849999999999884e+00 -3.890500000000000208e-02 4.635559999999999903e+00 3.595390000000000086e+00 9.981830000000000425e-01 1.019239999999999924e+01 3.070619999999999905e+00 6.434490000000000265e+00 1.141890000000000072e+00 1.065559999999999974e+01 1.534089999999999898e-01 3.006540000000000212e+00 1.197289999999999921e+01 1.113080000000000069e+01 1.972180000000000044e+00 9.968830000000000524e+00 2.718269999999999964e+00 2.142240000000000144e+00 7.097089999999999677e+00 7.817300000000000360e+00 2.661439999999999806e+00 3.009310000000000151e+00 3.607320000000000082e+00 8.203419999999999490e+00 2.046710000000000029e+00 7.590849999999999653e+00 8.131130000000000635e+00 1.023150000000000048e+01 2.506250000000000089e+00 8.664049999999999585e+00 8.108380000000000365e+00 9.084749999999999659e+00 4.627430000000000376e+00 1.113109999999999999e+01 8.699749999999999872e+00 3.588960000000000150e+00 1.598970000000000002e+00 1.823190000000000088e+00 1.093309999999999960e+01 1.072090000000000032e+01 5.012260000000000382e+00 9.192259999999999209e+00 8.296530000000000626e+00 1.269510000000000005e+01 2.566959999999999908e+00 9.654680000000000817e+00 7.433720000000000105e+00 7.545469999999999899e+00 1.291830000000000034e+00 9.753740000000000521e+00 8.605829999999999202e+00 6.389649999999999608e+00 1.717629999999999990e+00 4.418260000000000076e+00 9.286720000000000752e+00 2.040950000000000042e+00 1.029339999999999922e+00 2.750799999999999912e+00 7.059420000000000250e+00 1.220989999999999931e+01 4.429770000000000429e+00 2.526889999999999858e+00 1.044379999999999953e+01 2.732229999999999936e+00 9.042089999999999961e+00 5.685970000000000191e+00 6.884319999999999773e+00 1.162730000000000041e+00 2.700120000000000076e+00 9.428470000000000795e+00 9.908060000000000755e+00 7.401099999999999568e+00 1.099160000000000004e+01 7.988809999999999967e+00 1.885250000000000092e+00 3.290849999999999831e+00 5.980630000000000113e-01 1.616389999999999993e+00 6.930259999999999643e+00 5.379290000000000127e+00 7.479510000000000325e+00 4.601440000000000197e+00 8.393990000000000506e+00 7.577370000000000161e+00 1.666269999999999973e-01 7.202600000000000668e-02 1.169330000000000069e+01 9.093250000000000499e-01 1.058380000000000010e+01 5.279519999999999769e+00 1.186829999999999963e+01 2.906899999999999817e+00 1.666360000000000063e+00 1.088380000000000081e+01 5.520789999999999864e+00 2.256930000000000103e+00 4.215110000000000134e+00 9.210839999999999250e+00 2.371719999999999828e+00 1.542089999999999961e+00 9.488849999999999341e+00 6.511849999999999916e+00 8.231830000000000425e+00 4.144519999999999982e+00 5.721700000000000230e+00 5.958999999999999631e+00 1.097289999999999921e+01 3.797719999999999985e+00 5.897540000000000227e+00 3.789620000000000211e+00 6.481349999999999945e+00 4.674199999999999910e+00 2.862519999999999953e+00 1.007249999999999979e+01 -2.480539999999999967e-01 7.700070000000000192e+00 6.522490000000000343e+00 9.411479999999999180e+00 1.177749999999999986e+01 3.116929999999999978e+00 6.114910000000000068e+00 9.570399999999999741e-02 3.417839999999999767e-01 7.362699999999999800e-01 1.828189999999999982e+00 1.098150000000000048e+01 1.019940000000000069e+01 1.099310000000000009e+00 6.307080000000000020e+00 7.951240000000000308e+00 7.665779999999999816e+00 1.189150000000000063e+01 5.384820000000000384e+00 7.955169999999999852e+00 -1.651899999999999896e-02 1.906979999999999897e+00 4.467069999999999652e+00 3.630619999999999958e+00 1.554200000000000026e+00 5.778480000000000061e+00 8.625209999999999155e+00 6.188740000000000130e+00 6.561670000000000336e+00 9.700390000000000512e+00 3.461759999999999948e+00 3.840569999999999817e-01 1.009309999999999974e+01 9.158770000000000522e+00 6.735079999999999956e+00 1.089000000000000057e+01 8.171250000000000568e+00 3.390010000000000190e+00 9.994799999999999685e+00 2.918750000000000178e+00 3.375309999999999810e+00 9.348140000000000782e+00 5.792440000000000033e+00 1.055100000000000016e+01 1.176820000000000022e+01 8.965230000000000032e+00 9.323779999999999291e+00 4.890080000000000204e+00 2.259259999999999824e+00 1.035539999999999949e+01
5.123669999999999725e+00 1.789169999999999927e+00 3.737210000000000143e+00 4.572580000000000311e+00 3.921969999999999956e+00 1.413650000000000073e+00 1.165059999999999985e+00 6.780040000000000511e-01 6.966990000000000016e+00 3.664439999999999920e+00 1.119650000000000034e+01 3.973520000000000163e+00 6.149989999999999846e+00 9.612099999999999811e-02 1.653850000000000042e+00 7.862239999999999895e+00 5.126920000000000144e+00 1.148879999999999946e+01 8.356419999999999959e+00 6.487720000000000375e+00 3.263220000000000010e+00 7.023139999999999716e+00 3.911570000000000213e+00 2.886050000000000004e+00 3.474590000000000067e+00 5.442179999999999573e+00 2.871589999999999865e+00 6.079860000000000042e+00 9.742409999999999570e+00 1.142370000000000019e+01 1.417759999999999909e+00 1.192389999999999978e-01 3.085360000000000102e+00 4.909360000000000390e+00 7.202440000000000175e+00 1.032579999999999920e+01 4.493290000000000006e+00 8.033030000000000115e+00 8.116410000000000124e+00 1.082789999999999964e+01 8.313800000000000523e+00 2.141840000000000188e+00 4.324620000000000353e+00 6.730550000000000033e+00 5.210449999999999804e+00 9.701869999999999550e+00 9.036360000000000170e+00 5.837410000000000210e+00 7.492060000000000386e+00 2.435540000000000038e+00 1.176379999999999981e+01 2.248489999999999878e+00 5.235710000000000086e+00 9.497159999999999158e+00 4.351289999999999658e+00 2.099209999999999798e+00 1.047840000000000060e+01 6.005930000000000213e+00 2.405710000000000071e-01 1.066690000000000005e+01 4.759210000000000385e+00 2.549539999999999917e+00 7.427950000000000053e+00 1.236819999999999986e+01 7.618680000000000341e+00 6.665580000000000283e+00 6.145069999999999588e+00 6.319460000000000299e+00 7.148340000000000138e+00 5.424999999999999822e-01 2.376110000000000166e+00 9.172800000000000509e+00 7.360159999999999592e+00 6.598499999999999588e+00 9.478859999999999175e+00 4.366130000000000067e+00 4.039310000000000400e+00 4.607779999999999987e+00 3.793359999999999843e+00 1.059510000000000041e+01 1.023049999999999926e+01 5.049360000000000070e+00 4.772210000000000285e+00 8.941789999999999239e+00 9.950900000000000745e+00 7.528500000000000192e+00 9.494049999999999656e+00 1.034810000000000052e+01 8.206970000000000098e-01 6.658610000000000362e+00 1.020309999999999917e+01 1.030259999999999998e+01 9.120490000000000208e+00 1.021679999999999922e+01 6.445969999999999978e+00 1.133569999999999922e+01 3.558840000000000003e+00 3.358490000000000086e-01 1.115410000000000013e+00 1.675969999999999960e+00 2.927939999999999987e+00 3.512239999999999807e+00 6.096739999999999604e+00 8.580040000000000333e+00 4.211310000000000109e+00 1.057409999999999961e+01 2.353880000000000194e+00 4.582559999999999967e+00 1.133559999999999945e+01 1.998620000000000119e-01 1.517949999999999910e+00 2.099680000000000213e+00 2.931789999999999896e+00 -4.560399999999999870e-02 9.782920000000000726e+00 4.590849999999999653e+00 1.819530000000000092e+00 7.401970000000000383e+00 4.358609999999999984e-01 5.149960000000000093e+00 3.483919999999999906e+00 6.401200000000000223e+00 5.570349999999999469e-01 1.644930000000000003e-01 9.585770000000000124e+00 4.686309999999999754e+00 3.164509999999999934e+00 8.462880000000000180e+00 3.374019999999999797e+00 1.632430000000000048e+00 1.000580000000000069e+01 7.951010000000000133e+00 6.554640000000000466e-01 5.736220000000000319e+00 1.955689999999999928e+00 8.709089999999999776e+00 9.728199999999999292e+00 3.178729999999999833e+00 9.058149999999999480e+00 1.468399999999999928e+00 2.357689999999999841e+00 8.888199999999999434e+00 6.643650000000000055e+00 6.998300000000000409e+00 2.515979999999999883e+00 3.268279999999999852e+00 6.397820000000000285e+00 2.622009999999999952e+00 6.444110000000000227e+00 7.106060000000000265e+00 1.168290000000000006e+01 5.033400000000000318e+00 7.573269999999999946e+00 1.529670000000000085e+00 4.237420000000000075e-01 1.049530000000000030e+01 7.742110000000000269e+00 1.594719999999999915e+00 8.060769999999999769e+00 1.094929999999999914e+01 5.773590000000000444e+00 4.141969999999999708e+00 9.465009999999999479e+00 3.597210000000000019e+00 8.423159999999999314e+00 9.953849999999999199e+00 1.204709999999999948e+00 1.040629999999999988e+01 7.418090000000000295e+00 3.905240000000000045e+00 5.501680000000000348e+00 4.002399999999999736e+00 -2.637000000000000021e-03 6.909270000000000245e+00 7.671850000000000058e+00 9.610920000000000130e+00 9.162359999999999616e+00 1.091599999999999904e+00 9.632799999999999585e+00 1.355949999999999989e+00 7.682790000000000452e-01 7.941110000000000113e+00 1.000839999999999996e+01 6.346770000000000245e+00 1.016220000000000034e+01 7.421850000000000058e+00 8.861869999999999692e+00 1.000730000000000075e+01 2.435620000000000007e-01 6.422600000000000087e+00 6.788850000000000051e+00 1.081269999999999953e+00
8.633150000000000546e+00 8.671699999999999964e-01 5.701369999999999827e+00 9.930960000000000676e+00 5.798460000000000392e+00 7.566959999999999908e+00 6.229739999999999611e+00 9.310760000000000147e+00 7.352710000000000079e+00 9.458700000000000330e+00 1.191220000000000034e+01 8.309129999999999683e+00 6.412110000000000198e+00 4.979070000000000107e+00 9.069230000000000347e-01 5.636750000000000149e+00 1.047450000000000081e+01 1.014789999999999992e+01 1.087059999999999960e+01 5.061910000000000132e+00 3.191629999999999967e+00 1.153850000000000087e+01 6.210820000000000229e-01 6.241489999999999760e+00 5.693329999999999558e+00 5.127769999999999939e+00 4.669800000000000395e+00 9.070930000000000604e+00 1.001779999999999937e+01 1.028800000000000026e+01 8.467050000000000409e+00 7.287930000000000241e+00 2.805130000000000123e+00 9.788050000000000139e+00 4.306189999999999962e+00 9.777900000000000480e-01 7.161159999999999748e+00 3.386239999999999917e+00 6.135309999999999597e+00 6.805719999999999992e+00 3.693789999999999907e+00 8.755869999999999820e+00 3.217459999999999987e+00 3.490510000000000002e+00 4.539320000000000022e+00 3.756940000000000168e+00 9.482900000000000773e+00 8.851689999999999614e+00 4.971569999999999823e+00 6.100699999999999873e-02 2.716120000000000090e+00 1.060650000000000048e+01 8.882049999999999557e+00 1.167179999999999929e+01 9.633150000000000546e+00 3.776190000000000158e+00 4.690080000000000027e+00 9.717789999999999484e-01 4.209889999999999688e+00 9.795500000000000540e+00 2.127200000000000202e+00 1.313460000000000072e+00 3.906649999999999956e+00 8.330069999999999197e+00 9.978949999999999321e+00 4.149569999999999759e+00 1.372649999999999926e+00 2.076630000000000198e+00 1.109750000000000014e+01 6.750000000000000000e+00 7.111680000000000224e-01 8.744220000000000326e+00 7.900789999999999758e+00 2.137960000000000083e+00 1.227020000000000088e+01 8.261329999999999174e+00 5.910940000000000083e+00 4.937590000000000146e+00 4.372460000000000235e+00 7.237090000000000245e+00 8.637539999999999552e+00 3.206139999999999990e+00 1.882919999999999927e+00 1.430460000000000065e+00 2.326319999999999943e+00 1.091970000000000063e+01 2.086100000000000065e+00 7.846999999999999809e-03 7.221580000000000332e+00 2.591169999999999973e+00 2.373429999999999929e+00 7.407199999999999562e+00 2.194539999999999935e+00 8.894389999999999574e+00 3.168050000000000033e+00 8.251239999999999242e+00 1.737009999999999943e-01 9.767649999999999721e+00 7.100290000000000212e+00 5.652440000000000353e+00 6.985949999999999882e+00 3.007410000000000139e+00 3.870690000000000186e+00 1.190779999999999994e+01 7.166039999999999743e+00 1.110019999999999918e+01 6.929890000000000327e+00 9.565030000000000143e+00 8.802199999999999136e+00 8.751150000000000873e+00 6.766490000000000116e+00 1.784890000000000088e+00 6.433010000000000339e+00 4.592060000000000031e+00 4.011599999999999611e+00 9.600229999999999819e+00 3.145120000000000138e-01 6.705390000000000406e+00 6.335869999999999891e+00 8.187670000000000670e+00 1.223410000000000108e+00 9.546189999999999287e+00 1.136940000000000062e+01 1.145260000000000034e+01 1.259339999999999904e-01 1.077640000000000065e+01 5.675049999999999706e+00 1.001660000000000039e+01 4.486530000000000129e+00 4.050390000000000157e+00 4.801590000000000025e+00 1.797800000000000065e+00 7.319689999999999586e+00 3.009220000000000006e+00 3.159499999999999975e+00 4.396279999999999966e+00 1.137669999999999959e+00 1.070139999999999958e+01 1.112620000000000076e+01 9.507170000000000343e+00 2.341140000000000221e+00 4.090579999999999772e-01 6.850420000000000398e-01 1.540990000000000082e+00 7.748120000000000118e+00 9.273920000000000385e+00 8.616979999999999640e-01 4.933810000000000251e+00 1.733000000000000096e+00 4.456389999999999851e+00 9.981559999999999988e+00 4.163859999999999673e+00 1.063790000000000013e+01 1.057049999999999912e+01 7.869089999999999918e+00 4.535730000000000040e+00 3.124000000000000110e+00 4.705020000000000202e+00 7.906039999999999957e+00 1.001980000000000004e+01 5.163180000000000547e-01 3.544700000000000184e+00 6.086190000000000211e-01 3.084779999999999855e+00 5.368710000000000093e+00 5.602750000000000341e+00 4.237510000000000332e+00 1.061810000000000009e+01 3.167689999999999895e+00 6.097710000000000186e+00 1.040760000000000041e+01 7.675869999999999749e+00 1.517630000000000090e-01 1.977030000000000065e+00 1.512489999999999890e+00 1.078069999999999951e+01 4.734130000000000393e+00 7.494939999999999714e+00 1.209050000000000047e+01 1.144260000000000055e+01 8.715020000000000877e+00 6.462939999999999685e+00 1.196729999999999983e+01 3.670669999999999877e+00 8.392099999999999227e+00 5.972749999999999559e+00 7.423239999999999839e-01 4.495650000000000368e+00 1.019209999999999949e+00 1.928250000000000020e+00 1.291570000000000107e+00 8.130810000000000315e+00