-1.049251183089794358e+04
-1.049309943859404666e+04
-1.049680805766853337e+04
-1.049375273601346635e+04
-1.049459638846436428e+04
-1.049314269643188163e+04
-1.049609331669866515e+04
-1.049473297532564538e+04
-1.049593202478985040e+04
-1.048994291627393977e+04
-1.049561969307417348e+04
-1.049651660043768243e+04
-1.049524466373702126e+04
-1.048978702567992150e+04
-1.049355645911273859e+04
-1.049379479275777885e+04
-1.049163098247651214e+04
-1.049384579016483258e+04
-1.049266956957924594e+04
-1.049762170464259543e+04
-1.049572541287829335e+04
-1.049344788172095832e+04
-1.049725514078571177e+04
-1.048956969645984645e+04
-1.049457285883392433e+04
-1.049386705036418971e+04
-1.049512974206756007e+04
-1.049248100569478447e+04
-1.049463794708885325e+04
-1.049211821436743230e+04
-1.049113816796761785e+04
-1.049688969609852393e+04
-1.049657169557853376e+04
-1.049948897226333247e+04
-1.049445234648575388e+04
-1.049405224615526095e+04
-1.049283528794067570e+04
-1.049528539405290394e+04
-1.049476018560545344e+04
-1.049710924643077306e+04
-1.049683172630812442e+04
-1.049666155924661143e+04
-1.049405661553609571e+04
-1.049185066995879060e+04
-1.049059333395917929e+04
-1.049580663981049656e+04
-1.049418134980675495e+04
-1.049516826455051887e+04
-1.049622173609163292e+04
-1.049566262962626752e+04
-1.049394348610714042e+04
-1.049581708276736026e+04
-1.049599888476224442e+04
-1.049469185351273518e+04
-1.049685745878635498e+04
-1.049328254662838663e+04
-1.049742554426637798e+04
-1.049445216027425522e+04
-1.049027218039061700e+04
-1.049198289683620897e+04
-1.049444293884445142e+04
-1.049527303050400769e+04
-1.049491062830684314e+04
-1.049345831432058912e+04
-1.049162328017510481e+04
-1.049324587413444897e+04
-1.049687948240252081e+04
-1.049457244988401180e+04
-1.049573682068600829e+04
-1.049358146049456991e+04
-1.049184581053892362e+04
-1.049499937134420907e+04
-1.049608329633409448e+04
-1.049702810759537169e+04
-1.049353918428136421e+04
-1.049503909358386954e+04
-1.049781144896048681e+04
-1.049742680829486198e+04
-1.049679888552101693e+04
-1.049196178868574680e+04
-1.049701401356763381e+04
-1.049109049728942773e+04
-1.049411896977364086e+04
-1.049653844355821457e+04
-1.049414314727321653e+04
-1.049267703274402629e+04
-1.049447485382013656e+04
-1.049851443075527641e+04
-1.049444228801482313e+04
-1.049237941917313037e+04
-1.049517624440399049e+04
-1.049686577586987733e+04
-1.049441716452254150e+04
-1.049470928875867321e+04
-1.049429192475428681e+04
-1.048930892163206045e+04
-1.049137365291215792e+04
-1.049370732956875690e+04
-1.049358183249074500e+04
-1.049334463561872690e+04
-1.049495005573855269e+04
-1.049385339199751797e+04
-1.049331787889686166e+04
-1.049369479996932387e+04
-1.049906857493923599e+04
-1.049527236487310438e+04
-1.049540503867337247e+04
-1.049493246042681130e+04
-1.048940556763517634e+04
-1.049675884461905844e+04
-1.049233166587202140e+04
-1.049325096910397224e+04
-1.049519460689976222e+04
-1.049736217577572461e+04
-1.049420334286930847e+04
-1.049575119264856403e+04
-1.049713300515178889e+04
-1.049315961310298917e+04
-1.049334601724322965e+04
-1.049505996560096901e+04
-1.049411579842266474e+04
-1.049577641273207519e+04
-1.049516458496331688e+04
-1.049246145979163884e+04
-1.049521069784574502e+04
-1.049276525420614962e+04
-1.049595660609466177e+04
-1.049449532314498356e+04
-1.049353087500314541e+04
-1.049351182571432946e+04
-1.049500042038509309e+04
-1.049522194130530443e+04
-1.049336969155818224e+04
-1.049612060061755619e+04
-1.049539280212010817e+04
-1.049448446586818318e+04
-1.049365369769851350e+04
-1.049060451580950212e+04
-1.049368259677078640e+04
-1.049274846163969232e+04
-1.049681537564838982e+04
-1.049264394562650887e+04
-1.049809584777482632e+04
-1.049605666374657994e+04
-1.049388254841565686e+04
-1.049502778136054258e+04
-1.049244783223282502e+04
-1.049455421301006936e+04
-1.049715214537473548e+04
-1.049378835958806485e+04
-1.049191010333889426e+04
-1.049332379277870677e+04
-1.049592340225061344e+04
-1.049262243804011450e+04
-1.049564692652250233e+04
-1.049788839901369465e+04
-1.049389222088048155e+04
-1.049265694386805990e+04
-1.049567684975637349e+04
-1.049336364398913247e+04
-1.049490399913761030e+04
-1.049831095552257466e+04
-1.049516674839710140e+04
-1.049203038366157489e+04
-1.049466295446697404e+04
-1.049240177721240980e+04
-1.049132867515821090e+04
-1.049650346752540827e+04
-1.049444018279387092e+04
-1.049336820617149897e+04
-1.049483503442121219e+04
-1.049457704171177647e+04
-1.049312812500808650e+04
-1.049531798763906045e+04
-1.049095006749213644e+04
-1.049552927099670160e+04
-1.049531055070226284e+04
-1.049410340009370702e+04
-1.049632221039556862e+04
-1.049592183976376509e+04
-1.049528224131739626e+04
-1.049462112013745354e+04
-1.049450873057283388e+04
-1.049302921421879728e+04
-1.049361854541758839e+04
-1.049590174382824080e+04
-1.049235275242907846e+04
-1.049479624897375834e+04
-1.049033036097352124e+04
-1.049750789252733557e+04
-1.049389380342432014e+04
-1.049429789952439205e+04
-1.049392021405278865e+04
-1.049518003267187487e+04
-1.049082669994787830e+04
-1.049613230147728791e+04
-1.049426915785196070e+04
-1.049421432785797515e+04
-1.049561338745800458e+04
-1.049342493026347074e+04
