-1.387694309072504684e+00 6.586384678729919617e-01 -2.061022003515128598e-01 1.165049116773514831e-01 1.059330497069999183e-01 1.446996289220801035e-01 -1.250907507233442795e+00 -8.970532642891455577e-01 7.827877834635320331e-02 3.783121188573196902e-01 -5.363470314253516724e-01 -5.884962025845147382e-01 9.445194281539853742e-01 9.620677214367430174e-01 -8.546722282527414727e-01 1.079230835522871634e-01 4.750699298300921081e-01 -4.868918621564883864e-01 6.112520082060900473e-01 -6.840867327229713801e-01 1.219649063464109118e-01 -1.278347348590605170e+00 1.768555419601940404e+00 -2.909601231500994256e+00 -2.604311527691183792e-01 -8.850354139020116806e-01 5.577267826360772229e-01 -4.733349494182060302e-01 -4.225042399591248388e-01 -4.870080760192881802e-02 1.278887280254055181e+00 9.292625020067830643e-01 5.986325196796832282e-01 -5.946231414130929149e-01 1.016195613587292490e+00 1.624696027192314984e+00 8.302431486951027395e-01 1.626459289738952929e-01 -8.954941473333547508e-01 -8.684307154787118677e-01 -7.308674404855454165e-01 1.065741285687362483e+00 1.352637831716273942e+00 2.894229634152887698e+00 -3.011441599199042862e+00 -1.601031079493616116e-01 -6.260317376069287620e-01 1.228456634446558615e+00 3.442887107504900568e-01 -5.246978772312593797e-01 3.940117889685508801e-01 3.629677752027016951e-02 1.989889863510326373e+00 1.879396191019385043e+00 4.254003305577444549e-01 -3.646769417388685763e+00 5.283437015111267510e-01 1.073425798809836129e+00 2.667771495868677123e-01 -3.502454425499235136e-01 3.644230195908575165e-02 5.056382895114734655e-02 -9.627254096248885062e-01 -1.429827490764353559e+00 -1.475386924526266963e+00 1.217553100168659252e+00 9.436498810655149505e-01 -9.492780258811917005e-01 -2.320394890223884954e-01 2.020717390390163459e-01 3.149529379236703508e-01 2.032271927987994165e-01 2.222639491225309349e+00 -2.736013715922442496e-02 5.340412661121041182e-01 4.669997512337256684e-02 8.342201310618860277e-02 -1.678985898841899083e+00 2.023276666474916663e+00 -7.192506821912602044e-01 -3.356276926481197576e-01 -4.540485903997710238e-01 2.584735148236381730e-01 1.068060934957670405e+00 -1.708189516966331645e-01 2.952361762363708841e-01 -3.422657667847639473e-01 -1.997824287859882308e-01 -4.453227804977866744e-01 7.493115061089985485e-01 2.320333183748062023e-01 1.173381547892128340e+00 -3.118388177771433747e-02 9.829378800012981976e-02 8.594323686418431363e-02 -2.910488776311579984e-01 9.656580098883699170e-01 -1.412277654819700468e+00 -1.409187703042870554e+00 7.145332221146025731e-01 3.875341516690461452e-01 -1.279787680580436904e+00 1.246854934433776263e+00 2.169861942454017090e+00 5.877973767458207766e-01 1.676256929948632957e+00 -5.109347620196022510e-02 -4.472577927354652316e-01 -3.180845415716805347e-01 9.810352636634267487e-01 1.276275039444220438e-01 9.701286440617360243e-03 2.917199355557315577e-01 -5.684133158073328973e-01 -1.701355524768949912e-01 5.485551434462727916e-02 -3.961319206336980092e-01 5.908204798405092273e-01 3.654720296798461554e-01 2.161678121098010052e+00 1.727791607452726641e-01 -1.687646402723637640e-01 6.115271162441335839e-01 -2.019202496408712300e+00 3.876581816854501206e+00 -1.320384885244928752e-01 -1.437090857189336157e+00 -2.686025814078974783e+00 -7.340262978270440941e-01 -9.326501875294580524e-01 2.125993780350281942e-02 2.207770287434527579e-01 1.548328092713942672e+00 -2.359549191795385248e+00 -2.234396631752091911e-01 -3.139637316941667589e+00 -4.774399727223217482e+00 -8.552003328416588057e-03 -8.629959176206133953e-02 3.374182088882464181e-01 -2.473864037801657215e-02 1.312525537107623652e+00 -4.998533074030802464e-02 -1.594861974573225538e+00 -2.006114038666051869e+00 -2.354730430254251772e+00 7.524024863270920016e-02 -1.480873144447551193e-01 5.502063058951661700e-01 -2.627929681312384247e-01 -1.296380037708572130e+00 -1.279173701145999376e+00 -1.374598652240998087e+00 1.505982537901136842e-01 -3.562818785472948169e-01 8.849212569217393964e-01 -4.465851921489960574e-02 1.575671260592315992e+00 -2.532814291037762677e-01 -2.919828565648001639e+00 -9.896196628916502647e-01 -6.327659710017302652e-01 -1.553460528840509280e-01 4.565399893611190585e-01 -1.168730936497612144e-01 -7.296867899148015146e-01 -2.171707994522384041e-02 -1.376299694091181580e+00 2.232329464812025932e-01 3.317689810266635231e-01 9.546829989426421914e-01 -1.347690000796544219e-01 1.869026931977985084e+00 5.165073710070383628e-01 -8.328219651638666399e-01 3.834718086773744594e-01 1.442475775646144598e+00 -6.756360308590305674e-01 2.673596587186354956e+00 1.382322760352124591e-01 1.954619470371242951e+00 1.323955119091912991e+00 3.668354342631521714e+00 1.179809820010975008e+00 -3.190158465580370528e+00 1.009340538344004612e+00 -1.480266364101959775e-01 4.980885021945464786e-01 -9.812975161856739292e-02 6.733996853310838526e-01 6.247832099127795802e-01 -2.345632838835434719e-01
7.658930646038647483e-01 -3.330380775460869969e-01 2.975358737461625491e+00 -2.012630756733577275e+00 -1.008263246120263967e-01 -7.604001598143664831e-01 -5.811356484601112316e-01 -1.004700211362125506e+00 -8.425535906217633819e-01 1.374048950385542769e-02 -5.851033748555211078e-01 -5.451391757888456313e-01 -1.392862740643300956e+00 6.359875632603154694e-01 1.007239432842236271e+00 8.178812847052565616e-01 -6.585813893828558196e-01 4.487454330234280087e-01 -6.013666307792678856e-01 1.880761961017597683e-02 -4.559100690870940276e-01 -9.278108571630504509e-01 2.612171390049121023e+00 -1.964626203867183563e-01 -4.623527393836324717e-01 -8.580079774915988500e-02 -2.296051685511766582e-01 -7.146314382552871880e-01 -3.558566180847488880e-01 -3.071079879640573745e-02 4.886602669094452511e-01 2.121720606899548667e-01 1.397894389526023406e+00 -2.673566762389707474e-01 2.205800822414514806e-01 3.884319808922687134e-02 -8.304663204493287210e-02 -2.252425207105004379e+00 -1.872879987172490823e+00 1.235822844997912728e+00 -1.146465183138196675e+00 -6.968244919947053084e-01 -1.617193033952887049e+00 7.765322894769897122e-01 -6.133783105188194140e-01 2.877419247476845632e-01 -1.857195229459583652e-01 4.438238273559230729e-02 -9.421550416887062088e-03 3.123314411424625292e-01 5.023375072755822401e-01 -2.063001752947778433e-01 -1.788063407712705555e-01 -2.842256840670451812e-01 3.913224150639379451e-01 1.028036057856435592e+00 -1.739896361126644642e-01 -2.922492742741653604e+00 1.231669999175034169e+00 1.687020596214667600e+00 -1.026434774808832495e+00 -7.834341587977765586e-01 7.076087270860138834e-02 3.891194938770617950e-01 7.425068244876324997e-01 3.164066396499305434e-01 -2.622916030151776212e-01 7.290183030933871100e-01 3.283663831056646276e-01 2.940149022357101405e-01 -3.161526146577931518e-01 -1.445170805977707973e-01 -1.501318556770192270e-01 -1.912797906382299462e-01 1.418683301230745132e-02 -6.223715151493695169e-02 2.013256049021915906e-01 -1.291178696017336813e+00 -5.573071786004818451e-02 8.689377370217230556e-01 -4.420420528665380266e-01 -6.630597368656998558e-01 7.641215745271168203e-01 6.552878062358106215e-01 3.722854530519536381e-02 -1.917965823732463715e-01 -2.079076289899633723e-01 3.135527151431232729e-01 5.006637191188871849e-01 3.278609042245489991e-01 -7.236817213759735301e-01 1.599502815775736497e+00 2.498433499591792284e-01 1.417099501684625229e-01 -3.969879951416138475e+00 1.549599246115893836e+00 1.072119164184287127e-01 5.590750691328068012e-01 2.273461973154281279e-01 2.433137763758569383e-01 2.498083829562129828e-03 -8.469717742906802682e-01 9.233484505197937509e-01 4.403847197700622718e-01 2.040434152077463370e+00 6.796870609968014287e-01 -1.615953762230111224e-01 -4.478656015223204945e-02 -4.477776697942728923e+00 2.655596808188826596e+00 -5.241628820858752036e+00 7.337157085654023858e-02 -2.280305221323036591e+00 2.474357689608240041e-01 1.045913452343582017e+00 -4.810384887040582425e-01 2.650714797509974852e-01 3.154075089622320749e-01 -2.861298430668123283e-01 -1.479591192412331280e+00 -5.013646018401084481e-01 -1.056576331365772337e+00 -1.010211628094370706e+00 2.131450689695550071e+00 2.675685351392958489e-01 -1.107610672195068896e-01 -1.936092101005429042e-02 5.640912913965734354e-01 -1.155778233001761857e+00 1.063106933390358222e+00 -1.746340574085078590e+00 -2.451477956814386960e+00 1.656621929341799193e+00 1.013779805058827588e+00 -2.722155469893891566e-01 3.509638087726279498e-01 -1.000796248325065863e+00 1.090046952293355575e+00 2.053453190034822740e+00 2.138777819478883124e+00 8.141701544051432871e-01 1.237323855022303576e+00 4.387587541321299328e-02 -4.987919560189270629e-01 -4.206237351084231579e-01 -6.654061256088641407e-01 -4.570069016948453133e-01 -4.373436189532590723e-01 -2.947101285299810053e-02 -1.584135332192684764e+00 -5.530098367800514447e-01 2.312419328223779824e-01 -2.396227006803861581e-01 -1.599525441483538257e+00 -4.853882810289380512e-01 1.143128919678707556e+00 1.927678937247614188e+00 -2.436922427609038155e-01 -7.007387394444020146e-02 8.061951066256704476e-03 -6.057318497231032328e-01 2.075888121982119028e-01 3.820571877191354382e-01 -8.488785043936067920e-01 -1.503852636043984337e+00 1.917833154809445162e+00 -4.755018751608521277e-01 -6.832516384168353385e-01 -2.704517702221190811e-01 3.526504524451194444e-01 1.018662329958311297e+00 7.586780349182767891e-01 3.158296841009868294e-01 8.530164378181613882e-01 -5.771509527838500353e-02 2.537843368817326306e-01 -2.715295766664916899e-01 4.892603623868225365e-02 6.401738334242647321e-02 2.153309180314534610e-01 3.250121733461235340e+00 -4.272655630556799089e+00 5.546100913863909909e+00 3.511581841714699337e-01 1.166086299787970626e+00 1.353569599501199150e+00 -1.691683548904348244e+00 3.928418341869494679e+00 -1.013250157808014640e+00 -9.296270844347699347e-01 5.277852579049298054e-01 1.086435580795822586e+00
-1.766301590572510183e-01 2.631076711579349303e-01 -2.721769804419998384e-01 7.181913876896343918e-02 9.301119944906112436e-02 -5.488873299744524425e-01 -1.708454340591738063e+00 -3.186491558254597178e-01 6.629728335789158988e-01 3.703041609574079795e-01 4.920525804178069867e-02 7.805370397578932362e-01 -1.975121446963388344e-02 4.755008467195884214e-01 7.922494430897040196e-01 -1.753004873473947622e+00 3.597076163967272699e-01 1.783032273050614958e+00 2.125417853242601574e-01 3.758705992972618537e-01 -1.684087995951185912e-01 2.190180342280589443e+00 -3.852602680349737074e-01 1.228983710594212297e+00 -2.298756486035335445e-01 3.998949872176287834e-01 6.570227866476967549e-01 1.236739700384513974e+00 1.523568369290020152e+00 -1.066211797565511876e+00 1.116189414996342055e+00 -1.142825529505911764e+00 -1.396384637750890834e+00 -4.103377798093841844e-01 5.540645032959904404e-01 7.753470109205588823e-02 -1.063111561376044900e+00 1.021424208972016245e+00 7.643750852986224142e-01 6.559316104668957426e-01 1.308790752658445022e+00 1.053817023455226876e+00 -5.428400953438121679e-01 -1.474330201127800555e+00 4.234606903343791223e-02 -1.266309443598828410e-01 2.234432627196321908e-01 -1.288312944435996976e-01 -1.242657351415926259e+00 1.418230787074711008e-01 -9.119702905986902183e-03 -3.406351731611448330e-01 6.906430457791503663e-01 -1.848767153303444710e-01 4.881902692519277664e-01 -3.587624274533105506e+00 -1.368070621319571467e+00 9.552779522137010149e-02 -8.348058283615715780e-01 1.914294288421003742e-01 1.329250048938146189e-01 -1.359268192543440223e+00 -1.245147721936010532e+00 -5.972770340941077061e-01 1.146526889614019745e-01 4.816488685940726322e-01 -1.971861288157413794e-01 -1.197627564904825803e+00 -5.730978657635518170e-01 7.911376980836287709e-01 1.336526270878925227e-01 2.789580079143003655e-01 1.175480596511369491e+00 -5.294302497062408630e-01 -7.918997730600411272e-05 -6.517540820536880941e-02 5.219977046933773623e-01 -4.830856010394816158e-01 -3.851188573612129851e-01 -5.337455892487862757e-02 -4.788905891247909330e-01 8.526189452697356674e-02 4.589367717262052282e-02 7.464005031120550804e-01 -9.631763811190272029e-02 6.966815386590489989e-02 4.801828255726479644e-01 -5.374716319472233605e-01 1.421814904878755392e-01 -5.126954534630812077e-01 -4.801509438934728480e-01 -3.655594471872618267e-02 -9.628215688830457641e-02 -6.659332017565177120e-01 -4.667889207746642732e-01 -1.191374642021442387e+00 -6.719259290001811102e-01 1.576000876017336294e+00 -1.065854928447002914e+00 -6.743463655143328017e-01 1.355771492246811594e+00 -1.677076597635813737e+00 9.063663141527107392e-01 -8.189940581525953500e-02 2.091236065181160342e+00 1.170568761035869709e+00 -2.336407720699917034e-01 -9.359273156162839502e-01 2.032909561571497326e-01 -1.242932973674601704e-01 2.607849365638361117e-01 2.706394607527469187e-01 -2.622252685536680672e-01 -5.458842814844065972e-01 3.509838633772703331e-01 -2.429176722231373375e+00 -1.068802955329440252e+00 -8.246710539282985086e-02 1.755087981253600882e+00 3.218938880124784241e-01 -2.425018219981544820e-01 -7.926345943429650154e-01 1.513032502763898557e-01 -2.220818635967903187e+00 2.102144227444746605e-01 1.017265192501555449e+00 4.293495450104073963e-01 2.300983061371276658e-02 -3.658474107411018306e-01 -1.018439672424717113e+00 2.155479191380972048e-01 -2.285057648402659958e-01 9.607873120634188302e-01 -5.833226288073997123e-01 5.645731161286236810e-02 4.445848738910716524e-01 6.130538373001175045e-02 3.386852485251424794e-01 4.048006520455461610e-01 1.422663368921319726e-01 -1.643577694573478132e-01 2.508609925896246318e-01 8.907792583598563019e-02 4.055822674059690325e-01 -2.555825664313371437e-01 -1.284553991617120916e+00 -1.042983423183259983e+00 8.000095466450605208e-01 -2.242752717019770858e-01 -1.061402291995751979e+00 -7.886529839904949934e-01 -2.265332144964619099e-01 -5.586698632749033111e-01 -1.889082050841046634e-01 6.266549730127396467e-01 -2.581860654904299945e-01 -5.947938626628694603e-02 -5.998985308753155277e-01 5.342685516313850913e-01 1.404563831121210971e+00 7.214515464956089419e-02 -5.614764794835798156e-01 3.715064087946900462e-01 9.085044435399729224e-02 1.016372505484651467e-01 7.006708623209969566e-01 -2.398304458156564622e-01 1.041163082146485452e+00 8.509065905656513218e-01 1.115481847406906590e+00 2.409883678344724167e+00 9.541728920758398846e-01 5.639473096196533364e-01 7.665327550698951553e-01 -1.207774680633263431e+00 -1.208490475752808518e-01 6.960660165627160501e-01 1.065676493887748766e+00 -5.197130224260361198e-01 -7.563470727940683203e-01 7.329757450761599236e-01 -5.367229267072392423e-02 -6.079414557781935846e-01 -1.513104493652358551e+00 2.202616768262054769e+00 -9.729553148750549330e-01 -1.112475199372437773e+00 1.919657609611274129e-01 1.340261055328103801e+00 -2.193850334930154133e-01 3.634825100551907218e-01 4.043213984166552782e-02
1.585988583349898118e+00 -1.327022445160940922e+00 -1.127653963983597629e+00 -2.827843236359495194e-01 1.370632468507483992e+00 -4.792160907847564655e-01 -5.595419814665331115e-01 -2.650586242352010458e-01 -5.013023811436537747e-01 -4.085200098757690856e-01 -9.342468425913746932e-01 3.649953985761777542e+00 -2.513983531499153212e-01 3.617907241763806403e-01 -1.721815335269283098e+00 4.085308085090380015e-01 1.159464680711545931e-01 6.377045459500865210e-01 8.407137092009785428e-01 1.670382473450297001e+00 1.825952212309205569e+00 -3.616045763076483621e-01 1.567457614439661251e-01 -5.926099676393720150e-01 3.056676559742254051e-01 1.672898555001973986e-01 -3.362298450080244416e-01 5.893184413748543404e-01 -9.560801363993982893e-02 -2.836800959766447305e-01 8.601810738818272961e-01 5.810698282192334752e-01 1.508594778710971307e-01 3.121967153369159531e-01 7.488384231276898895e-01 -3.168910354851400268e-01 1.720163144379125653e+00 -3.151061756719638063e-01 -1.007589617092530948e-01 2.120713248681740826e+00 -2.775208126703227585e+00 3.371654694476885261e+00 -2.750992962928441865e-01 -9.131632824645988245e-02 -1.830368339095595209e-01 6.567574488016583167e-01 6.360909216073187648e-03 1.125486524020319790e+00 1.052146834842954647e-02 1.268739136084353625e+00 5.535256000738042470e-01 -2.427527616665007271e-01 7.433177504240712219e-01 -1.657480677797000368e+00 -2.045492540433041795e-01 -3.656463504740457005e-01 2.450436145814244571e-01 -2.809048472265116003e-01 -1.758989373187501426e-01 2.404161431153417627e-01 8.820015121740544528e-02 6.054022342980828336e-02 -6.092352348879461754e-01 -1.365903695576925203e-01 -1.341600600074091654e+00 -1.799098582472360708e-01 8.351123038581583780e-01 1.278243476022969727e+00 -2.090588147185020063e+00 -7.013917996468607141e-01 1.081445069563648609e+00 -1.355529294329206991e+00 2.058818568107620539e+00 -1.181151935860122126e+00 -1.129171429068207999e+00 -2.737366116184226650e-01 -1.196360011047298000e-01 1.735665353767724017e+00 -6.008976615630140516e-02 -1.727735043183222574e+00 1.164466504797620594e+00 6.650302303269765014e-01 1.088466238071026521e-01 2.366211948522358999e-01 -2.735134398641966280e-01 2.595626341219116062e-01 8.820169387930101856e-02 3.033089259358965895e-01 8.056438621083195084e-01 -2.763735350185861916e-01 -1.079750712581679428e+00 -8.003340198637624026e-01 -9.375573950192711559e-01 5.447812782290729627e-01 8.559053293279349495e-01 1.140983591202599179e+00 9.524456249734316593e-01 -9.315338145376963475e-01 3.475504122183600497e+00 -3.446772044378581423e+00 -7.349200132852118372e-01 1.398230689819258021e+00 -2.014084972680469932e+00 3.517875902248631115e-01 -6.266868546919148741e-01 -8.080221325306590208e-01 -2.090790235893340010e-01 -1.885100954709208354e+00 -1.298071309366750414e+00 -9.662632475720659420e-01 2.967418142464487429e-01 1.767540862295285953e-01 1.305580473253760698e-01 5.491264425682661487e-01 -7.177728120953027480e-01 -6.041192538215992558e-01 5.646800740200499380e-01 7.820478199742896264e-01 -1.060775457045517900e+00 3.871058058827090975e-01 -9.606047637391094129e-01 7.370149481393980517e-01 -2.129517734340399482e+00 1.205696715059928481e+00 2.478338271519446412e+00 -3.320404895202840878e-01 -1.870980456158410465e+00 -4.255746513519439445e-01 -3.335972410611685035e+00 -1.811887249586648096e-01 8.734644212439616195e-01 -5.431949075797937176e-01 3.433965379542178176e-01 -5.349509224098595306e-01 -1.270472059613712457e+00 -1.495405019503835004e-02 -5.467718262949921026e-01 8.383842897386655224e-01 2.532176657454260349e-01 -2.669051905242001421e-01 8.992844676107739077e-02 3.852713237785586387e+00 3.713255059764026367e+00 -1.552113785005675206e+00 1.941491417639929218e-01 -1.482163838233512831e-01 3.448517823423736389e-02 -6.957009199140974376e-01 6.733930004628696508e-01 -3.468058207434308177e-02 6.034044871433177359e-01 -1.715866830999958903e-01 -6.091570733519038328e-01 -1.759787443608143764e+00 4.784416745131796489e-01 -1.723467011938808191e-01 -8.338226385134606122e-01 -2.199193087295149840e-01 1.681501466172944173e-02 -7.295191539888160603e-01 7.266297482584106460e-01 -1.013202849509883707e+00 1.862886109192346984e+00 -1.325026240668071509e+00 2.616520668153368590e+00 -7.011429168610417983e-01 5.188882125325371408e-01 -2.705031922853047832e-01 7.626920411705538916e-01 4.728927196748088091e-02 -9.686420322150370854e-01 -6.707648188134478218e-02 9.960247950820631802e-02 5.275800838728187531e-02 -5.869957067807555218e-01 -3.617111742446323497e+00 -6.345395179610057168e-01 -1.540870350890118257e+00 3.500217565750656235e-01 2.157233712176868767e+00 -2.751881536180290855e+00 1.176075549782428009e+00 -7.905129200159223268e-01 8.581262482369260425e-02 8.744080161034196719e-01 6.429768500885181259e-01 -3.417464039465881731e-01 -2.025600943730910597e+00 1.116559653851279421e+00 1.731734651257807567e+00 4.324461816554513449e-01 -3.570264700222239296e-01
5.125761542764902812e-01 -9.442006113622338770e-01 -2.435888844139005027e-01 1.142921174543437113e+00 -1.394613147674143017e+00 -1.160394905834575496e+00 -5.800696690902713559e-01 6.576573349074084085e-01 -2.546651968241039343e-01 6.702881362877159965e-01 1.090214588219340919e-01 4.692623220138972817e-01 6.903355418412997491e-01 -1.246712495318751945e-01 2.133033460800406456e-01 4.139830898686195915e-01 -1.007273371403938800e+00 -3.726510639212040621e-01 -7.863364200439784124e-01 4.234977142198728672e-01 1.026708340184980528e-01 -2.470737576359965382e-01 -1.046084173593358757e-01 -5.495151933659502275e-01 -1.553693470786740694e+00 6.189180093858167586e-01 1.970080542109292621e+00 1.416672698560183796e-01 -1.300285543407527555e+00 1.395249752816382083e+00 2.404439110294620818e-01 3.249720127147754933e-01 1.121654551871720029e+00 4.304088395120332367e-01 1.962060242914216157e-01 -3.187751398802647351e-01 -8.622143022601905238e-02 1.151757541881270663e+00 -3.948561392460603336e-01 1.621990712448114214e-01 -7.477544460357349321e-01 -2.177230724108530080e-01 1.251544626596313714e+00 -2.246629940583973750e-01 -7.264441146103102209e-01 -3.076319787879198131e-01 1.001617458674141758e+00 2.424740540840341629e-01 -2.514713724796390770e-01 -1.350297099400060152e-01 -4.285051947328979288e-02 -2.635483582394365087e-01 -1.503982219643212326e-01 6.929380124591288936e-01 4.436304803983447398e-01 1.011409762166597615e+00 -1.106734440238384298e+00 7.129854180127124241e-01 1.425452501628512891e+00 -4.003973807749532376e-01 1.389515164329910846e+00 8.068430246218104285e-02 8.781186321829008712e-01 -1.363171127139236161e+00 9.257760861227914972e-01 -1.064698960466588101e-01 -1.391085079918970568e-01 -4.952093808767781269e-01 -4.553284855524635244e-01 -7.701739513640757373e-01 6.929770932271500650e-01 -1.118986775233644870e+00 -5.158481401569974256e-01 -2.949744379347556400e-01 2.764239286405082430e-01 1.179997510541602734e+00 -5.957811662760352789e-01 9.350130313328417486e-01 -4.382167655861525235e-01 -1.508013709396972546e-01 -3.263074436957085211e-01 -2.472424220032456987e-02 -2.297095553394436496e-01 5.406567145409466590e-01 2.857508624611335146e-01 2.380820956673421307e+00 -3.470000418760833316e+00 -3.390668002339804893e-02 -7.149235155741822112e-01 5.217832746898929397e-01 9.956278167542694790e-01 1.266175746234546040e-01 -1.685075299564351703e-01 6.430483267563463778e-01 -1.660801514637534115e+00 3.645914782698538747e+00 4.148022433351681304e-01 -6.546116061049185308e-01 6.194286304732509185e-01 -1.901001685087496118e-01 -1.588849192724919590e-01 -4.353386727096478781e-01 1.317186432914776717e-01 1.413443392992120573e-01 -1.482199833677742551e-01 8.439075335454434557e-01 4.301460727691542307e-01 6.739041357709357749e-01 3.136437321949619994e-02 -1.341802174561779748e-01 -1.237748087043585965e+00 -6.507261550106056003e-01 1.633653750599266763e+00 6.033978022751036452e-01 -8.697394069867883104e-01 -7.840126570086158875e-01 -1.375341186833400009e+00 -2.330730724924213737e-01 2.885137699161021141e-01 -2.965001305494758821e-01 -1.583007132126390326e+00 6.441945245447558976e-01 -2.349432415084227177e+00 -1.350651911636041591e-01 3.111754731620475917e-02 -1.564099753713634189e-01 -2.777079375582555687e-01 5.974081603552312547e-01 1.130570623407491648e-01 -2.443607295823180814e-01 -6.441389887165153150e-01 3.686499131847234545e-01 1.303096273381258552e+00 3.735494073650585389e-01 -1.043040501673395903e+00 -2.175502942785489946e-01 4.622174993574539731e-02 1.121514683859855088e+00 -2.046458761000301774e+00 4.683665496732020705e-01 9.135129524942617318e-02 3.801401732035719072e-01 1.311931098057196772e-02 -6.729564271464230085e-01 -1.653622994616808173e+00 4.128523186991657490e-02 6.283719557025108093e-01 -1.142207436306419410e-01 -4.553948200139730229e-01 -6.115883084993246205e-02 1.098949139872066771e+00 -7.924139936918982467e-04 -8.910929329452890735e-02 -1.302268892384600418e-01 -1.861287397247902931e+00 -3.923236026341637706e-01 -1.650421971183497094e+00 -1.953843511437770575e+00 -7.583880144819095392e-02 4.247621827536096073e-01 8.287873900863151899e-01 2.417096651147784492e+00 2.040633155461991574e-02 1.108139805225249797e+00 7.446315841384664180e-01 7.320496337181853219e-02 1.600861386685103194e-01 2.217170240584876717e-01 -1.413613085800633495e-01 2.291202584953353494e-01 2.102576172775506291e-01 -1.108402571968128969e+00 2.823894021906832585e-01 -2.261850871286945897e-01 5.488253149662504882e+00 -2.626837990910951159e+00 7.486354088222326730e+00 7.552229864928284853e-01 -6.662628171815381251e-01 -9.959445766634934527e-01 4.397614843642513698e-03 -5.028841238072464526e-01 5.556575588134841093e-01 -5.520792002805163357e+00 1.905388501297869519e+00 -8.828777955528021693e+00 6.723912986720118612e-01 -6.721275034878691768e-02 -1.571699934652482922e-01 1.178195167226943063e+00 4.353607841968177850e-01 1.115900937221870226e+00
-7.079635393219954054e-01 1.859756048206232248e-01 1.424734135405808289e+00 -6.012015659564416969e-01 -5.368031451258090669e-01 -8.903416566021458145e-01 -3.299085307806043366e-02 3.262076848931282358e-01 4.970816581973700604e-02 1.469904818370037780e-01 1.903495655152002974e-01 -1.615131009219139546e-01 1.852622779601109659e+00 -2.208428489843304865e-01 -3.063232872798433704e-01 -1.224750132132132185e-01 5.153622016598925076e-02 3.228786205224849493e-01 6.454101421184662568e-01 -1.548056069999690643e-01 -8.475713555474256866e-01 -3.942421598116229164e-01 -6.085163544446099415e-01 6.532432650035464583e-01 -8.205727154923969646e-02 -1.242261401529396236e+00 1.259285703988291649e+00 -1.221235948334020271e+00 5.658746085478540966e-01 -1.254282851460953196e+00 -2.273467115360599533e-01 1.084707285252150544e-01 -6.924978395982591683e-01 -5.453196672306274140e-01 -2.975326855782450264e-01 5.789116442273288810e-01 2.057293903934163948e-01 -4.043800195686870214e-01 -1.065840530269311082e-01 -6.455932046634074162e-01 -1.262573116487754499e+00 -2.522920686080831310e+00 -4.579006171530130564e-01 3.243760310024529581e+00 -1.573977932051610559e-02 -1.535460235622349012e+00 1.500051517133296208e+00 -1.420791605821359327e-01 -7.657074309557643232e-01 -2.043713337046816125e+00 -2.350528219250715090e+00 -7.391361082458087761e-01 -1.468556017652676404e+00 1.455400197007242546e+00 -7.401712343777373526e-01 -1.485580834332203448e+00 1.262245043724629534e+00 -3.577844312335814320e-02 6.355571605914510647e-01 -4.436407648109819135e-01 -5.869653677634759648e-01 -4.996075099410525744e-01 -7.310808420477662439e-01 2.340598618849553114e-01 -1.037255005344371178e-01 2.545968054800669678e-01 1.358476292770380178e+00 1.210171977218981454e-01 6.903622813141563341e-01 -2.270808594693897731e-01 7.743288540694816258e-02 -2.263614648054216583e-01 1.040097616997277541e+00 4.843716668397563652e+00 1.422840260818678537e+00 -2.390051217015257135e-01 -1.658263835819318854e-01 1.080105010597029125e+00 3.451263761597853086e-01 -3.578456234887724685e-01 -1.977531084844270870e+00 -2.793914959069559306e-02 1.131424229656374375e-01 -6.869026049030212411e-01 6.331742621834248741e-01 -3.736563652564848237e-01 -4.833787067996403453e-01 1.449371988539980949e+00 -2.872149514441573182e+00 -3.361894786884237263e+00 1.456603473285788430e+00 1.929047278348985581e-02 -6.218958610649014673e-01 3.414724271939347133e+00 -9.180026128310067035e-01 -6.139784059961967966e-01 -2.533199956511655859e-01 -1.795252212146069004e-01 9.126495760533734902e-01 1.175240969696923765e-01 1.991387788210926102e+00 -1.227185995265239526e+00 1.273614976115623465e+00 -6.968106080376451628e-01 -7.465187738573821896e-01 8.717237844051252127e-01 6.646260529103368286e-01 -3.801257750258799084e-01 -1.072648811435100019e-01 7.496704321100347013e-01 8.657084314536599434e-01 6.716374512257092810e-01 -3.542311666674484161e-01 1.136038845606660797e+00 6.502654133244616386e-01 -1.619255058686634163e-01 -1.688500008972520783e-01 1.471912849937440093e+00 6.894459401481868310e-01 -4.269723030293317012e-01 2.154474404266323084e+00 3.367651486857877741e-01 -5.984129474698801632e-01 -9.980024876321859084e-01 -1.968889092905279359e-01 -4.958891805520933005e-01 -1.855914820086259354e-01 4.468674992758856490e-01 1.691117391988673502e-01 -2.280762363464757136e+00 -8.987558488012247215e-01 -1.552802326431731994e-01 4.579638662907315472e-01 1.505790219384822048e+00 -2.934677714834141304e-01 -5.031967699514156012e-01 -1.656335508449854610e-01 3.170483869984883074e-01 -3.715886840957871584e-01 3.681231969915121915e+00 -2.179365768172001339e+00 4.900610039106241267e-01 7.462205258909050398e-01 -8.567702484307186950e-01 -2.243061249398885237e-01 -5.348866448308774446e-01 2.605093143051606663e-02 1.787545587536425451e+00 -4.524107976873059100e-01 2.780015061169827995e+00 -5.934620312263593628e-02 -1.494039763726254133e+00 -9.500174751498021708e-01 -1.386139305881768591e+00 4.666860766482927581e-01 4.436746519506212572e+00 -3.769283511369920237e-01 -4.383710317757096298e-01 -1.048525693153416372e+00 8.967303337323393464e-01 -3.924017641702061410e-03 5.781074031591042495e-01 -1.000677977579738531e+00 5.449730825247556254e-01 3.832290965391378923e-01 -1.737290290964392581e+00 -1.221839643355820612e-02 4.146201578094275142e+00 -2.054543337774360268e+00 -3.228343975481451911e-01 2.885881776415318622e+00 -4.929462958759747715e-01 -2.063742230657652776e-01 6.668392585098500414e-01 1.377766765553870010e-01 3.729128022228193635e-03 6.664422801820563125e-01 -2.236345527946830281e-01 -3.459662012957345212e+00 -3.201621986126362174e+00 -6.028491288609120202e-01 1.043541352568825076e+00 5.705252199423702653e-01 -2.732126207945602125e-01 -5.408582890286346423e-01 4.882643170229152285e-01 5.029082921769436609e-01 -5.028938939992516621e-01 -7.284973975933158874e-01 -1.199544065199757537e+00 7.848570072861252855e-01 4.111435635395043198e-01