1.085570000000000057e+01 4.150310000000000166e+00 7.187949999999999839e+00 1.096100000000000030e+01 1.129759999999999920e+01 5.352949999999999875e+00 5.653380000000000294e+00 5.398249999999999993e+00 1.181029999999999980e+01 8.925769999999999982e+00 8.420650000000000190e+00 1.068200000000000038e+01 8.849349999999999383e+00 6.570260000000000211e+00 8.731490000000000862e+00 9.857590000000000074e+00 1.848479999999999901e+00 9.259800000000000253e+00 4.886540000000000106e+00 1.051350000000000051e+01 6.703960000000000363e+00 7.059190000000000076e+00 9.834609999999999630e+00 1.194180000000000064e+01 8.105850000000000222e+00 4.852809999999999846e+00 6.854580000000000339e+00 4.011000000000000121e+00 4.851119999999999877e+00 9.441129999999999356e+00 1.482760000000000078e+00 1.047729999999999961e+01 6.869640000000000413e+00 8.701249999999999929e+00 5.609200000000000408e+00 1.108220000000000027e+01 4.063539999999999708e+00 3.510170000000000012e+00 2.191219999999999946e+00 9.063579999999999970e+00 7.107739999999999725e+00 5.218099999999999739e+00 7.085350000000000037e+00 2.534469999999999779e+00 2.295960000000000001e+00 9.318880000000000052e+00 8.098599999999999355e+00 3.235189999999999788e+00 2.793109999999999982e+00 4.902079999999999771e+00 1.205209999999999937e+01 4.451629999999999754e+00 1.063289999999999935e+01 2.597490000000000077e-01 6.595279999999999809e+00 4.645620000000000083e+00 1.909710000000000019e+00 4.334740000000000038e+00 2.415599999999999969e+00 9.486349999999999838e+00 1.461830000000000074e-01 7.009490000000000443e+00 2.287510000000000154e+00 3.559050000000000047e+00 7.948660000000000281e+00 5.870549999999999935e-01 5.000160000000000160e+00 4.881210000000000271e+00 7.356139999999999901e+00 6.091999999999999638e+00 1.269430000000000058e+00 9.889850000000000030e-01 1.155000000000000071e+01 9.762460000000000804e+00 3.594489999999999963e+00 8.107160000000000366e+00 1.007670000000000066e+01 3.082069999999999865e+00 8.582589999999999719e+00 1.160859999999999914e+01 4.494290000000000229e-01 5.596619999999999706e+00 8.984529999999999461e+00 1.921200000000000019e+00 6.140130000000000088e+00 7.182199999999999918e+00 7.960189999999999877e+00 7.003079999999999750e+00 2.178889999999999993e+00 9.289450000000000429e+00 2.201029999999999820e+00 7.037219999999999587e+00 1.040169999999999995e+01 5.633899999999999686e+00 -4.179800000000000182e-02 9.213689999999999714e+00 8.153669999999999973e+00 1.110609999999999964e+01 9.505229999999999180e+00 1.339039999999999953e-01 4.836789999999999701e+00 4.649239999999999817e+00 3.939900000000000069e-01 1.409820000000000073e+00 7.170270000000000366e+00 4.839929999999999843e+00 4.950190000000000090e+00 4.377670000000000172e+00 7.460069999999999979e+00 9.540879999999999583e+00 6.312229999999999563e+00 1.352670000000000039e+00 1.112160000000000082e+01 2.446820000000000217e+00 7.995490000000000208e+00 1.018629999999999924e+00 6.747830000000000439e+00 1.821379999999999999e+00 2.592810000000000059e+00 6.135570000000000190e-01 8.021259999999999835e+00 6.849179999999999602e+00 1.122000000000000108e+00 8.968199999999999505e+00 3.006889999999999841e+00 4.491530000000000022e+00 9.434150000000000702e+00 2.276909999999999989e+00 2.163130000000000053e-01 6.345220000000000304e-01 6.693950000000000067e+00 8.613350000000000506e+00 5.733310000000000350e+00 1.137710000000000043e+01 3.082640000000000047e+00 2.976770000000000138e+00 1.865219999999999934e-01 4.995549999999999713e+00 3.171600000000000197e+00 9.224610000000000198e+00 8.522840000000000416e+00 3.637469999999999981e+00 8.360879999999999868e+00 5.870049999999999990e+00 1.072979999999999912e+01 8.800829999999999487e+00 6.210429999999999673e+00 6.645900000000000141e+00 5.021119999999999806e+00 9.634240000000000137e+00 2.347049999999999859e+00 7.781480000000000175e+00 3.288120000000000154e+00 6.254690000000000083e+00 7.624019999999999797e+00 4.548119999999999941e+00 2.311589999999999812e+00 4.686729999999999841e+00 6.444410000000000416e+00 1.023349999999999937e+01 9.580719999999999459e+00 8.806960000000000344e-01 1.167130000000000045e+01 3.860149999999999970e+00 1.016980000000000040e+01 1.123179999999999978e+01 4.650140000000000384e+00 1.910420000000000007e+00 5.822269999999999612e+00 2.801709999999999923e+00 6.727319999999999744e+00 1.155940000000000012e+01 9.661989999999999412e+00 9.150299999999999656e+00 9.631030000000000424e-01 5.821800000000000308e-01 1.070899999999999963e+01 1.160360000000000014e+01 7.634669999999999845e+00 1.138250000000000028e+01 9.781929999999999126e+00 6.246429999999999483e-01 3.114459999999999784e+00 2.050730000000000164e+00 2.600830000000000197e+00 3.775669999999999860e+00 3.040810000000000013e+00 1.582359999999999989e+00 7.526229999999999976e+00 5.309379999999999988e+00 9.362750000000000128e+00 9.996190000000000353e+00
4.720019999999999882e+00 4.766850000000000254e-01 8.843940000000000135e-01 5.374729999999999563e+00 2.829559999999999853e+00 1.120400000000000063e+01 5.771100000000000119e-01 3.407570000000000210e+00 2.590780000000000083e+00 8.842819999999999681e+00 8.154920000000000613e+00 4.132489999999999775e+00 3.734649999999999803e+00 1.008329999999999949e+01 4.437859999999999694e+00 8.173569999999999780e+00 7.976010000000000044e-01 1.084939999999999927e+01 3.940220000000000056e+00 1.090270000000000072e+00 1.062020000000000053e+01 1.063739999999999908e+00 1.555180000000000007e+00 3.610630000000000006e+00 4.493109999999999715e+00 2.532849999999999824e+00 7.446049999999999613e+00 1.025680000000000014e+01 8.287919999999999732e+00 7.040239999999999831e+00 1.114610000000000056e+01 9.907030000000000669e+00 3.213239999999999874e+00 7.338720000000000354e+00 6.128720000000000390e+00 6.425430000000000419e+00 1.785709999999999908e+00 6.146370000000000111e+00 1.117070000000000007e+01 1.129190000000000055e-01 8.024190000000000822e+00 4.908680000000000376e+00 4.881890000000000285e+00 8.502860000000000085e+00 1.103679999999999950e+01 1.077110000000000012e+00 1.133760000000000012e+01 2.100499999999999812e+00 4.241439999999999877e+00 8.248250000000000526e+00 7.876730000000000231e+00 6.387599999999999945e+00 2.081719999999999793e+00 9.032349999999999213e+00 9.685140000000000526e+00 6.727360000000000007e+00 2.396640000000000104e+00 8.211809999999999832e+00 4.324709999999999610e+00 7.733590000000000186e-01 2.247409999999999908e+00 2.268510000000000026e+00 6.333370000000000388e+00 9.658879999999999910e+00 1.001629999999999932e+01 1.005129999999999946e+01 8.979509999999999437e+00 8.087400000000000588e+00 -1.356489999999999918e-01 9.297109999999999985e+00 6.312389999999999723e+00 1.016150000000000020e+01 5.990960000000000285e+00 6.413310000000000066e+00 1.054080000000000084e+01 1.187470000000000070e+01 8.135849999999999582e+00 4.399520000000000097e-01 2.198999999999999844e+00 9.786720000000000752e+00 8.161590000000000344e+00 1.128649999999999931e+00 3.581109999999999793e+00 9.456509999999999749e+00 1.782900000000000110e-02 6.174750000000000405e+00 1.880770000000000053e+00 6.119040000000000035e+00 1.124829999999999997e+00 3.539280000000000204e+00 8.434419999999999362e+00 1.061100000000000065e+01 2.333819999999999784e+00 3.581970000000000098e+00 8.073110000000000008e-01 4.074659999999999727e+00 6.897520000000000095e+00 1.174840000000000018e+01 8.816570000000000462e+00 2.843910000000000160e+00 9.955099999999999838e+00 2.802669999999999884e-01 1.896290000000000031e+00 2.226620000000000044e+00 3.236370000000000080e-01 1.106859999999999999e+01 5.013899999999999579e+00 1.179289999999999949e+01 1.129920000000000080e+01 2.575099999999999945e+00 8.417139999999999844e+00 4.521460000000000257e+00 3.640210000000000168e+00 3.818020000000000191e+00 2.258879999999999999e+00 5.402319999999999567e+00 8.191620000000000346e+00 6.625980000000000203e+00 3.171769999999999978e+00 6.037010000000000431e+00 4.016510000000000247e+00 4.994159999999999933e+00 -4.493899999999999978e-02 7.033680000000000376e+00 9.700910000000000366e+00 6.053209999999999980e+00 1.036180000000000057e+01 8.230460000000000553e-01 4.547810000000000130e+00 1.127389999999999937e+01 6.333779999999999966e+00 8.339700000000000557e+00 5.480019999999999669e+00 4.805620000000000225e+00 8.101850000000000662e+00 2.241659999999999986e+00 8.845860000000000056e+00 2.589770000000000127e+00 8.177920000000000300e+00 1.934609999999999941e+00 2.351339999999999986e+00 7.714330000000000354e+00 1.222100000000000009e+01 5.540549999999999642e+00 1.082070000000000087e+00 8.857929999999999637e+00 1.020819999999999972e+01 5.813609999999999722e+00 8.375120000000000786e+00 2.911729999999999929e+00 7.456800000000000095e-01 4.209859999999999935e+00 5.474730000000000096e+00 1.277859999999999996e+00 4.041049999999999920e-01 9.651970000000000383e+00 1.027089999999999925e+01 2.562199999999999811e+00 1.780440000000000078e-01 8.612980000000000302e+00 3.349990000000000023e+00 1.007399999999999984e+01 1.035549999999999926e+01 1.074130000000000074e+01 7.834499999999999797e-01 4.433370000000000033e+00 1.035360000000000014e+01 8.615719999999999601e+00 9.613189999999999458e+00 4.536850000000000271e+00 6.223090000000000011e+00 2.761439999999999895e+00 5.976849999999999774e+00 3.368310000000000137e+00 6.630289999999999573e+00 1.077299999999999969e+01 1.179299999999999926e+01 4.245230000000000281e+00 7.414830000000000254e+00 5.593930000000000291e+00 1.151600000000000001e+01 1.057959999999999923e+01 7.466520000000000046e+00 7.449230000000000018e+00 7.902619999999999756e+00 8.560710000000000264e+00 1.628449999999999953e+00 1.071209999999999951e+01 5.711859999999999715e+00 7.254929999999999879e+00 5.698039999999999772e+00 3.070590000000000153e+00
1.024000000000000021e+01 7.656899999999999817e-02 2.387430000000000163e+00 6.521959999999999980e+00 7.286550000000000082e+00 1.826699999999999990e+00 4.752169999999999561e+00 8.975990000000000357e-01 4.497499999999999609e+00 1.002720000000000056e+00 3.297789999999999999e+00 2.463880000000000070e+00 3.266560000000000130e+00 1.188909999999999911e+01 1.163799999999999990e+01 8.965139999999999887e+00 7.698450000000000237e+00 1.051870000000000083e+01 2.796450000000000102e+00 1.025079999999999991e+01 5.066340000000000288e+00 1.061589999999999989e+01 3.539590000000000014e+00 5.854070000000000107e+00 2.919470000000000121e-01 4.961500000000000021e+00 4.073129999999999917e+00 6.279099999999999682e+00 1.013710000000000022e+01 1.066409999999999947e+01 1.618610000000000104e+00 4.192290000000000183e-01 1.677019999999999955e+00 6.430019999999999847e+00 9.448370000000000601e+00 4.154200000000000337e+00 5.100229999999999819e+00 3.415039999999999853e+00 1.113219999999999921e+01 8.445679999999999410e+00 8.426470000000000127e+00 4.541070000000000384e+00 -1.598499999999999921e-02 1.020149999999999935e+01 4.204290000000000305e+00 4.868310000000000137e+00 3.320879999999999832e+00 7.339120000000000310e+00 6.407770000000000188e+00 6.252379999999999605e+00 4.436749999999999972e+00 3.622259999999999813e+00 6.898869999999999614e+00 3.151639999999999997e+00 8.524879999999999569e+00 4.849549999999999805e+00 3.024099999999999788e+00 8.276379999999999848e-01 6.022980000000000000e-01 8.390900000000000247e+00 4.234429999999999694e+00 7.516580000000000261e+00 6.557579999999999520e-01 3.553620000000000001e+00 5.211940000000000239e+00 1.306100000000000039e+00 3.460490000000000066e+00 2.140249999999999986e+00 1.837059999999999915e+00 1.200760000000000005e+01 8.437070000000000292e+00 1.149129999999999985e+00 2.328720000000000123e+00 2.105579999999999785e+00 1.157510000000000083e+01 1.023610000000000042e+01 4.413689999999999891e+00 9.803599999999999426e+00 9.675029999999999575e+00 1.051909999999999989e+01 4.924240000000000173e+00 9.043369999999999465e+00 1.100880000000000081e+01 8.443379999999999441e+00 4.628330000000000055e+00 8.131370000000000431e+00 5.509059999999999846e+00 1.134360000000000035e+01 2.451020000000000199e+00 8.591189999999999216e+00 1.157339999999999947e+01 6.886529999999999596e+00 1.060609999999999964e+01 1.261630000000000029e+00 8.026849999999999596e+00 4.098790000000000155e+00 7.812439999999999607e+00 2.944059999999999899e+00 7.465679999999999872e+00 8.254030000000000200e+00 1.416590000000000016e+00 9.737759999999999749e+00 8.122070000000000789e+00 4.976409999999999556e+00 3.512200000000000044e-02 9.691639999999999588e+00 1.013230000000000075e+01 1.108479999999999954e+01 3.331350000000000033e+00 5.446390000000000065e+00 1.076110000000000078e+01 1.150980000000000025e+01 6.723209999999999908e+00 7.615809999999999746e+00 8.528029999999999333e+00 5.526869999999999727e+00 6.814639999999999809e+00 6.325389999999999624e+00 3.234960000000000058e+00 4.092209999999999681e+00 6.174789999999999779e+00 1.461589999999999945e+00 1.132360000000000033e+00 6.512069999999999803e-01 1.087759999999999927e+01 1.110130000000000017e+01 3.424990000000000201e+00 1.005869999999999997e+01 1.773810000000000109e+00 2.514369999999999994e+00 1.874849999999999905e+00 5.721510000000000318e+00 3.474800000000000111e+00 1.108319999999999972e+01 7.426770000000000316e+00 1.071049999999999969e+01 6.733850000000000335e+00 4.997200000000000308e+00 2.088560000000000194e+00 3.085580000000000211e+00 9.255620000000000402e+00 1.162020000000000053e+01 8.272890000000000521e-01 5.602710000000000079e+00 8.096090000000000231e+00 8.419999999999999929e+00 7.833680000000000199e+00 5.613809999999999967e+00 6.179129999999999789e+00 6.928819999999999979e+00 6.499570000000000292e+00 1.015210000000000079e+01 1.605399999999999938e+00 1.160919999999999952e+01 5.245049999999999990e+00 1.446870000000000100e+00 6.172679999999999723e+00 6.444960000000000022e+00 1.040859999999999985e+01 1.024699999999999989e+01 2.605729999999999880e+00 3.492859999999999854e+00 1.785770000000000080e+00 4.430329999999999657e+00 6.923239999999999839e+00 1.154589999999999961e+01 9.682890000000000441e+00 7.737949999999999662e+00 2.017729999999999801e+00 8.106759999999999522e+00 6.694410000000000416e+00 3.534159999999999968e+00 4.693889999999999674e+00 4.453439999999999621e+00 4.338720000000000354e+00 9.420769999999999200e+00 9.283369999999999678e+00 5.664559999999999818e+00 8.008720000000000283e-01 9.752879999999999328e+00 6.603320000000000078e+00 1.120110000000000028e+01 6.940590000000000259e+00 1.036250000000000071e+01 2.586520000000000152e+00 6.809920000000000417e-01 7.682990000000000208e+00 6.450350000000000250e-01 3.617350000000000065e+00 1.789469999999999894e+00 8.311280000000000001e+00 1.114889999999999937e+01
2.502380000000000049e+00 5.017989999999999950e-01 1.016469999999999985e+01 4.605649999999999800e+00 1.646570000000000089e+00 2.896800000000000069e-02 8.241030000000000300e+00 9.712630000000000763e+00 4.095559999999999867e+00 4.698310000000000208e+00 -7.422800000000000231e-02 8.045709999999999695e+00 8.544819999999999638e+00 5.701629999999999754e+00 2.961120000000000196e+00 1.344759999999999955e+00 2.269080000000000208e+00 5.502209999999999823e+00 5.166920000000000179e+00 1.003110000000000035e+01 3.669119999999999937e+00 9.127070000000000460e-01 2.506709999999999994e+00 9.580420000000000158e+00 1.149929999999999986e+01 4.042049999999999699e+00 9.781230000000000757e+00 1.136619999999999964e+00 4.697169999999999845e+00 5.605940000000000367e-01 4.556219999999999715e+00 1.100200000000000067e+01 1.224969999999999892e+00 5.193660000000000387e+00 3.680270000000000152e+00 2.646630000000000038e+00 5.130200000000000315e+00 5.790350000000000108e+00 1.151319999999999943e+01 1.999959999999999960e+00 3.965430000000000010e+00 3.808460000000000178e+00 1.708839999999999915e+00 1.153659999999999997e+01 1.051940000000000097e+00 8.134330000000000283e+00 8.017049999999999343e+00 1.902360000000000051e+00 2.739959999999999951e+00 2.099709999999999965e+00 7.545729999999999826e+00 8.350590000000000401e+00 8.110070000000000334e+00 8.222200000000000841e+00 1.154420000000000002e+01 3.649859999999999882e+00 6.858939999999999593e+00 6.883440000000000225e+00 1.524149999999999894e+00 2.171949999999999825e+00 4.096119999999999983e+00 2.601840000000000153e+00 4.529930000000000234e+00 2.316959999999999908e+00 1.114620000000000033e+01 7.896390000000000242e+00 2.202150000000000052e+00 1.037310000000000088e+01 5.119290000000000340e+00 5.341289999999999871e+00 8.295139999999999958e+00 -2.699899999999999869e-02 6.452560000000000073e+00 3.100049999999999972e+00 9.757389999999999119e+00 9.011910000000000309e+00 4.822049999999999947e+00 1.042570000000000086e+01 5.027669999999999639e+00 7.498120000000000118e+00 3.315100000000000158e+00 1.075730000000000075e+01 9.038410000000000721e+00 4.324320000000000164e+00 3.607699999999999907e+00 8.004200000000000870e+00 8.217019999999999769e+00 2.957990000000000119e+00 5.915659999999999918e+00 2.261039999999999939e+00 9.722849999999999326e+00 1.095260000000000034e+01 2.843409999999999993e+00 9.717439999999999856e+00 1.143560000000000088e+01 1.139930000000000021e+01 2.572630000000000194e+00 6.895459999999999923e+00 1.023789999999999978e+01 -1.670369999999999910e-01 8.443140000000000089e-01 7.206470000000000375e+00 1.345000000000000084e-01 1.077360000000000007e+01 3.451330000000000009e+00 1.003090000000000082e+01 1.009169999999999945e+01 9.223560000000000869e+00 8.845029999999999504e+00 7.529860000000000220e+00 1.114729999999999954e+01 6.517830000000000013e+00 5.835320000000000285e+00 9.073639999999999262e+00 1.863759999999999861e-01 1.061580000000000013e+01 1.092719999999999914e+01 2.058840000000000003e+00 7.499550000000000161e+00 4.741600000000000037e+00 5.143959999999999866e+00 9.885790000000000077e+00 9.617549999999999599e+00 4.658089999999999620e+00 4.597920000000000229e+00 6.623499999999999943e+00 6.786170000000000258e+00 4.322880000000000056e-01 1.077919999999999945e+01 1.089729999999999954e+01 7.107929999999999637e+00 6.987180000000000391e+00 1.107659999999999911e+01 1.941789999999999905e+00 1.124610000000000021e+01 1.124460000000000015e+01 3.820440000000000058e+00 2.006880000000000219e+00 1.167149999999999999e+01 7.533179999999999765e+00 6.607889999999999597e-01 5.558670000000000222e+00 9.283210000000000406e+00 5.948649999999999771e+00 9.741490000000000649e+00 9.692380000000000440e-01 8.713169999999999860e+00 7.554630000000000400e+00 1.050600000000000023e+01 1.158290000000000042e+00 1.746459999999999901e+00 5.075129999999999697e+00 7.745090000000000252e+00 7.366939999999999600e+00 4.603760000000000296e+00 6.691580000000000306e-01 1.165180000000000105e+00 1.809760000000000035e+00 2.364390000000000214e+00 9.629999999999999671e-01 8.943360000000000198e+00 7.305430000000000312e+00 7.146239999999999704e+00 5.054300000000000459e-01 6.967550000000000132e+00 2.441419999999999924e+00 8.313739999999999242e+00 1.081909999999999927e+00 3.560350000000000126e+00 2.516430000000000056e-01 3.661020000000000163e+00 9.736990000000000478e+00 1.633049999999999891e+00 3.314309999999999867e+00 7.386420000000000208e+00 2.990720000000000045e+00 4.651980000000000004e+00 3.384749999999999925e+00 3.795929999999999804e+00 1.049760000000000026e+01 1.177299999999999969e+01 5.033009999999999984e+00 4.712989999999999569e+00 9.014549999999999841e+00 4.226149999999999629e+00 7.129010000000000069e+00 8.885479999999999379e+00 7.169999999999999929e+00 5.276810000000000223e+00 1.033430000000000071e+01 1.209009999999999962e+01 5.826310000000000322e+00
1.736879999999999979e+00 1.536920000000000064e+00 1.132840000000000025e+01 5.616810000000000080e+00 6.081109999999999793e+00 5.183209999999999873e+00 8.311400000000000787e+00 5.041380000000000194e+00 7.196390000000000065e+00 9.471339999999999648e+00 2.536859999999999893e+00 9.858240000000000336e+00 8.741830000000000211e+00 1.021369999999999889e+00 4.129659999999999997e-01 2.092280000000000140e+00 8.513920000000000599e+00 6.586210000000000342e+00 7.749799999999999578e+00 1.564889999999999892e+00 4.321030000000000371e+00 6.788979999999999571e+00 2.649150000000000116e+00 1.181949999999999967e+01 8.383129999999999526e+00 3.382200000000000095e+00 1.912760000000000016e+00 1.699889999999999901e+00 8.393480000000000274e+00 1.169890000000000008e+01 4.371330000000000382e+00 8.499200000000000088e+00 4.255569999999999631e+00 6.412659999999999805e+00 3.201390000000000069e-01 1.058019999999999960e+01 1.103769999999999918e+01 2.887179999999999858e+00 4.811840000000000117e+00 6.171800000000000175e+00 6.815850000000000186e+00 2.423729999999999940e+00 2.084470000000000045e+00 4.558790000000000120e+00 5.835580000000000211e-01 1.028710000000000058e+01 5.224569999999999936e+00 3.934849999999999959e+00 1.045669999999999966e+01 6.077289999999999637e+00 9.930859999999999133e+00 3.955929999999999724e-01 6.836219999999999963e+00 8.663059999999999761e+00 1.879050000000000109e+00 9.747609999999999886e+00 4.124799999999999578e+00 6.570090000000000430e+00 9.636309999999999931e+00 3.069199999999999928e+00 2.676689999999999792e+00 1.146080000000000076e+01 6.814149999999999707e+00 3.887589999999999879e+00 8.020599999999999952e+00 8.767950000000000799e+00 5.296979999999999578e+00 8.975479999999999237e+00 5.762230000000000407e-01 7.431079999999999686e+00 4.056890000000000107e+00 4.520579999999999821e+00 3.083429999999999893e+00 2.692379999999999995e+00 2.849190000000000111e+00 8.657400000000000873e+00 8.822919999999999874e+00 9.051590000000000469e-01 7.655490000000000350e+00 1.051740000000000030e+01 1.141389999999999993e+01 4.574869999999999770e+00 1.112579999999999991e+01 4.953689999999999927e+00 4.592389999999999972e+00 1.132590000000000074e+01 1.202459999999999951e+01 3.515179999999999971e+00 1.217580000000000062e+01 2.565430000000000099e+00 -1.994800000000000045e-02 9.594020000000000437e+00 2.081719999999999793e+00 1.089250000000000052e+00 9.303699999999999470e-02 8.491809999999999192e+00 5.011660000000000004e+00 4.524560000000000137e+00 2.830830000000000179e+00 6.946769999999999889e+00 1.147489999999999988e+01 5.527479999999999727e+00 2.693369999999999820e+00 9.026659999999999684e+00 1.823539999999999939e+00 5.006490000000000329e+00 3.080309999999999881e+00 5.695680000000000298e+00 9.000599999999999712e-01 9.521800000000000708e+00 9.222839999999999705e+00 1.163850000000000051e+01 7.903690000000000104e+00 4.359099999999999753e+00 7.435190000000000410e-01 9.427830000000000377e-01 2.684400000000000119e+00 6.791509999999999714e+00 8.662969999999999615e+00 9.906739999999999213e+00 6.611399999999999721e+00 5.387730000000000352e+00 9.696389999999999176e+00 3.909009999999999874e+00 5.607980000000000409e+00 8.137689999999999202e+00 1.083919999999999995e+00 2.631190000000000140e+00 6.296109999999999651e+00 4.106220000000000425e+00 1.599960000000000049e+00 8.135790000000000077e+00 1.001629999999999932e+01 5.570000000000000506e-01 9.256389999999999674e+00 9.039120000000000488e+00 7.574740000000000251e+00 2.868869999999999809e+00 1.064879999999999960e+01 3.858220000000000205e+00 7.408459999999999823e+00 1.024329999999999963e+01 9.516519999999999868e+00 1.119180000000000064e+01 3.503499999999999837e+00 6.524250000000000327e+00 1.136280000000000001e+01 1.930520000000000014e+00 3.333530000000000104e+00 9.630240000000000578e+00 6.229470000000000063e+00 1.102899999999999991e+01 8.329439999999999955e+00 8.462210000000000676e+00 5.640469999999999651e+00 2.390420000000000045e-01 3.872970000000000024e+00 2.448319999999999830e+00 3.389500000000000152e-02 2.720990000000000020e+00 6.057140000000000413e+00 5.608249999999999957e+00 1.139610000000000056e+01 2.951229999999999798e+00 9.634169999999999678e-01 6.351869999999999905e+00 8.929639999999999800e-01 2.095779999999999976e+00 1.084659999999999958e+00 1.123150000000000048e+01 1.199660000000000082e+01 9.266959999999999198e+00 8.397800000000000153e+00 7.505410000000000359e+00 8.193799999999999972e-01 4.937500000000000000e+00 3.223440000000000083e+00 9.654980000000000118e+00 1.145219999999999949e+01 2.161979999999999791e+00 1.216450000000000031e-01 1.173210000000000086e+01 5.233419999999999739e+00 1.165290000000000070e+01 6.672399999999999665e+00 3.240200000000000025e-02 7.484390000000000320e+00 8.214650000000000674e+00 5.188530000000000086e+00 7.329320000000000057e+00 2.436409999999999965e+00 7.806490000000000151e+00
5.999380000000000379e+00 3.620169999999999888e+00 1.094849999999999923e+01 3.491429999999999811e+00 4.921759999999999913e+00 1.550349999999999895e+00 5.508709999999999773e+00 2.340440000000000076e+00 4.891589999999999883e+00 9.045460000000000278e+00 3.174299999999999899e-01 9.001080000000000192e-01 1.086200000000000010e+01 1.454320000000000057e+00 2.466450000000000031e+00 6.573560000000000514e-01 8.627359999999999474e+00 7.975810000000000066e+00 1.286159999999999970e+00 2.633309999999999818e+00 9.049429999999999197e+00 8.745499999999999829e+00 2.489030000000000076e+00 2.198160000000000114e+00 1.103880000000000017e+01 8.795740000000000336e+00 1.005910000000000082e+00 4.496310000000000251e+00 2.456179999999999808e+00 8.904629999999999157e+00 3.106339999999999879e+00 8.330759999999999721e+00 7.236550000000000260e+00 3.396669999999999856e+00 9.892360000000000042e+00 8.964679999999999538e+00 5.709170000000000300e+00 1.018560000000000088e+01 7.456620000000000026e+00 1.193069999999999986e+01 1.967589999999999895e-01 5.143130000000000202e+00 8.577120000000000744e+00 5.461520000000000152e+00 8.496230000000000615e+00 8.702669999999999462e+00 1.002319999999999922e+01 5.280930000000000346e-01 6.210960000000000036e+00 5.584520000000000373e+00 1.399080000000000101e+00 6.704749999999999766e+00 8.557909999999999684e+00 1.051229999999999942e-01 1.145219999999999949e+01 3.923849999999999838e+00 4.003200000000000092e-01 1.320189999999999975e+00 5.208929999999999616e+00 4.524090000000000167e+00 5.315260000000000318e+00 7.630850000000000133e-01 6.516740000000000421e+00 6.977750000000000341e+00 2.146150000000000002e+00 3.009440000000000115e+00 5.255650000000000155e+00 9.653140000000000498e+00 1.034549999999999947e+01 5.538710000000000022e+00 1.045299999999999940e+01 2.060509999999999842e+00 4.096499999999999808e+00 -3.662399999999999683e-02 9.916180000000000661e+00 1.863820000000000032e+00 -6.676999999999999776e-03 4.062380000000000102e+00 6.310620000000000118e-01 8.218659999999999854e+00 1.095880000000000010e+01 6.600810000000000066e+00 6.293300000000000338e+00 1.079950000000000010e+01 9.081619999999999138e+00 6.072750000000000092e+00 1.145359999999999978e+01 1.208839999999999915e+00 1.016050000000000075e+01 5.566390000000000171e+00 8.080399999999999139e+00 6.976619999999999600e+00 2.333530000000000104e+00 9.937290000000000845e+00 3.522110000000000074e+00 5.182540000000000369e+00 8.623570000000000402e-01 5.609980000000000189e+00 1.143800000000000061e+01 1.097090000000000032e+01 4.311569999999999681e+00 2.762669999999999959e+00 1.567949999999999955e+00 2.042930000000000135e+00 5.706220000000000070e+00 1.068079999999999963e+01 1.062100000000000044e+01 1.033869999999999933e+01 1.188049999999999962e+01 1.125140000000000029e+01 2.011439999999999895e+00 1.601450000000000040e+00 1.990359999999999907e+00 1.167800000000000082e+01 1.729610000000000092e+00 -2.494000000000000036e-02 8.812680000000000291e+00 1.897720000000000073e+00 1.133200000000000074e+01 3.223030000000000062e-01 7.761660000000000004e+00 1.137449999999999939e+01 2.609220000000000095e+00 1.248170000000000002e+00 6.905630000000000379e+00 2.726690000000000058e+00 9.767839999999999634e+00 1.000980000000000025e+01 5.526060000000000194e+00 3.155149999999999899e+00 2.031829999999999803e+00 3.134040000000000159e+00 7.248029999999999973e+00 8.391650000000000276e+00 5.922380000000000422e+00 7.819069999999999965e+00 5.024680000000000035e+00 4.685399999999999565e+00 1.096780000000000044e+01 2.244520000000000071e+00 7.585099999999999731e+00 6.860859999999999737e+00 2.932699999999999751e-01 8.508979999999999322e+00 9.145300000000000651e+00 1.327779999999999960e+00 4.680469999999999686e+00 3.247710000000000097e+00 8.280060000000000642e+00 7.236890000000000267e-01 1.073300000000000054e+01 1.187500000000000000e+00 1.079460000000000086e+01 5.248969999999999914e+00 7.346700000000000230e+00 3.108810000000000073e+00 1.142350000000000065e+01 6.601759999999999629e+00 8.989750000000000796e+00 3.595699999999999896e+00 3.751700000000000035e+00 6.884199999999999875e+00 4.869629999999999903e+00 1.937780000000000058e+00 4.097500000000000031e-01 7.531380000000000408e+00 3.597459999999999880e+00 7.073279999999999568e+00 8.712400000000000588e+00 3.320329999999999782e+00 1.175089999999999968e+01 4.973419999999999952e+00 1.085420000000000051e+01 4.980850000000000222e+00 3.260699999999999932e+00 6.405190000000000161e+00 9.298470000000000013e+00 1.165869999999999962e+01 7.908619999999999983e+00 5.185489999999999711e+00 7.929190000000000182e+00 8.175869999999999749e+00 9.196030000000000371e+00 5.232529999999999681e+00 6.742600000000000371e+00 7.627720000000000056e+00 2.940329999999999888e+00 7.271550000000000402e+00 4.460650000000000226e+00 1.056259999999999977e+01 1.132280000000000086e+01 7.672620000000000218e+00