-1.049077392848794625e+04
-1.049413742015493335e+04
-1.049497266233002301e+04
-1.049820665092942363e+04
-1.049790596461351561e+04
-1.049269002809431186e+04
-1.049372665813606545e+04
-1.049306215863365469e+04
-1.049254371433184497e+04
-1.049461900717564276e+04
-1.049404227407666986e+04
-1.049235812135086599e+04
-1.049512959784814302e+04
-1.049610322109113258e+04
-1.049903990652983885e+04
-1.049477961905561642e+04
-1.049188250771454113e+04
-1.049435490906162522e+04
-1.049494881666533547e+04
-1.049384163884089685e+04
-1.049782311819714232e+04
-1.049548585578355232e+04
-1.049548919971393843e+04
-1.049793157216803957e+04
-1.049223374503749073e+04
-1.049600398933163160e+04
-1.049727636327931395e+04
-1.049832269108257060e+04
-1.049437125118890071e+04
-1.049637170289432834e+04
-1.049666789385590528e+04
-1.049727288891377430e+04
-1.049754716319235013e+04
-1.049179752133928014e+04
-1.049687409534955259e+04
-1.049786768196858247e+04
-1.049512317703524786e+04
-1.049507090987545234e+04
-1.049463051305116278e+04
-1.049467789785171408e+04
-1.049236744782807364e+04
-1.049243629124378276e+04
-1.050172544049239696e+04
-1.049486187932046050e+04
-1.049274236273082533e+04
-1.049559750299915868e+04
-1.049611225128265505e+04
-1.049498052260118311e+04
-1.049481974023075054e+04
-1.049672353680322158e+04
-1.049480452345973026e+04
-1.049912287980049405e+04
-1.049516416046049017e+04
-1.049294614054134399e+04
-1.049569785511802002e+04
-1.049585681968242716e+04
-1.049507350557514474e+04
-1.049598386048240172e+04
-1.049700899272945571e+04
-1.049480791395995766e+04
-1.049378904282017720e+04
-1.049393185137040564e+04
-1.049288485985771331e+04
-1.049358219413034567e+04
-1.049602504049242816e+04
-1.049682199832399783e+04
-1.049339311229076884e+04
-1.049412414561935111e+04
-1.050177428558142492e+04
-1.049929489388468573e+04
-1.049418470246139441e+04
-1.049430474857680019e+04
-1.049243323751925163e+04
-1.049334747160584084e+04
-1.049980744390784821e+04
-1.049637806879934942e+04
-1.049556137968496114e+04
-1.049286581356901479e+04
-1.049602973887993176e+04
-1.049644971017201533e+04
-1.049548116518841380e+04
-1.049565963383409689e+04
-1.049248736853417358e+04
-1.049158900636123872e+04
-1.049253953499414274e+04
-1.049555635309074387e+04
-1.049246757292615439e+04
-1.049905146171896740e+04
-1.049678773490389358e+04
-1.049192507333768845e+04
-1.049691940572120620e+04
-1.049542253223159423e+04
-1.049412699107758090e+04
-1.049944167497268245e+04
-1.049486233347989946e+04
-1.049375331392663793e+04
-1.049609622483859130e+04
-1.049482920856974670e+04
-1.049578850736291861e+04
-1.049688557441254488e+04
-1.049517813710030896e+04
-1.049465013765116782e+04
-1.049623930456798371e+04
-1.049497631558847024e+04
-1.049915159521069836e+04
-1.049513471562818995e+04
