-1.263681776170038351e-01 -1.562279412676859658e-01 3.733704585851722602e-01 -3.898985381343254009e-01 1.318576371282686788e+00 1.011874617617796845e+00 -2.580953569709703910e+00 1.066875142180607527e+00 2.895262189181657231e+00 -3.605648221900331629e-01 2.397774810905751730e-01 -5.576969578394295191e-01 4.851306564923776321e-01 8.571368877412326448e-01 -1.186894237656071160e+00 1.599303298170575705e-01 9.394553833714559821e-02 1.117175175947612287e-01 6.832855769785379785e-01 1.297610567680606453e+00 4.917851856892412749e-02 -3.794459753505647348e-01 -7.971792762873187721e-01 1.096270564600722919e+00 6.303578757827432710e-01 4.503230619219658060e-01 -6.843561843340646433e-01 -2.935657819358460596e+00 5.579802934075828169e-01 2.122832351905624027e+00 -1.043922390057030913e+00 1.482091847345052837e-01 -3.711701085014553758e-01 2.514445301626560880e+00 -1.334519267752786620e+00 5.196194342710379610e-01 1.486570709048528616e-01 -2.367842027925345372e-01 -4.894753066109387984e-01 -9.279435260860694479e-01 -2.983376979774174487e+00 2.606850749171294446e+00 3.954304208477184446e+00 1.114697146722692711e+00 4.056457736540034276e+00 1.631525391404009762e+00 -8.542809063518980173e-01 -2.249326513577432962e+00 7.834228459438756786e-01 7.389412186263349946e-01 -3.770317094839953365e-01 -8.150942088805905872e-01 7.406474026828371304e-01 -4.025267684114737787e-01 -7.231474461394739039e-01 2.859739827932963774e+00 9.008631249505753835e-02 4.042267818203935659e-01 -1.405637523800528643e-01 2.319188528621548340e+00 -1.137129507566829734e+00 8.545092203124425856e-01 -7.218968615627971985e-01 2.139672049157682714e-03 -1.570697204420361259e-01 2.448286703573081535e-01 -1.273467909014912136e+00 4.313970173002731556e+00 -1.609753804071809347e+00 -3.048250026248011224e+00 -3.628964528010631074e+00 -4.033176911653333363e+00 -4.417057525733033563e-01 -1.577109021478988682e+00 -1.025654187889673274e-01 -6.936471227104598070e-01 1.665625418384986123e+00 -4.475107892863389863e-02 -3.499662207468250408e-01 2.655275934514548242e-01 -1.523018667434564988e-01 4.784817837224644710e-01 -1.074604906718684694e+00 -1.495070776093127551e-01 6.022711448707045445e-01 4.485901383926071406e-01 -7.423448449885976519e-01 8.816857807060941576e-01 4.625707689315398663e-01 2.900188937055480642e-01 2.741684541050563251e+00 -1.106140001187957446e-02 2.029650945427418307e+00 -1.000249117572769908e+00 1.300378617341893417e+00 -1.098775333298499080e+00 2.084154732859855308e+00 -2.208629035889728975e-01 1.048619281308414419e-01 -9.393679658640402552e-01 8.662097965697206359e-01 1.235785306891787200e-01 -2.797217798187977778e+00 1.699977413475572408e-01 6.084927002955444614e-02 3.543288685875012889e-01 2.467060898842187155e-01 -5.485402310479490229e-01 -1.023016236048245875e-01 3.868162996669735065e-01 1.913625801599589393e-01 1.992423428563486532e+00 1.367288491738516631e+00 -1.477043229181479012e+00 1.864022022568119219e+00 -1.125523547905813437e+00 -4.086938164493367776e-01 -3.788762188904669648e-01 -1.077738053028590270e+00 -4.742188946843685082e-01 -4.955647073333914743e-01 1.045153434249697089e-01 1.010401375507525845e+00 -4.703802376675546570e-01 7.817521431109717422e-01 3.123293842599350612e-01 2.091515286984258482e-01 1.441207707567984775e+00 -7.466601845311430230e-01 -1.947476945794746728e+00 -1.317261509127028107e+00 -3.066858128253026283e+00 -1.043636997606350425e+00 6.456615960074444382e-01 1.079476632984899487e+00 7.458816544945111593e-01 -9.277260107587939064e-01 -1.072520770497767728e+00 -2.656782086745257399e+00 -2.246300839379585246e-01 2.962779872365134959e-01 -4.734583623698517818e-01 -1.382778359831950077e+00 -5.870070196346562907e-01 8.860916230798462356e-01 -4.556735275964396426e-01 1.512983651803872176e+00 1.462254243809266940e+00 -1.083777574349752859e+00 -1.348384712870183355e+00 1.010556670138346824e+00 -3.724037237972807612e-02 -6.389890690884656443e-01 3.647788602681026893e-01 -5.940508138498359347e-01 -3.338896269124425054e-01 4.749696568068800251e-01 2.701293538859446119e-01 8.153425774457776498e-01 6.337712723370111378e-01 9.711231467637478909e-01 -2.805227812970417095e-02 -5.621922746031249307e-02 4.732084511427691043e-01 -3.735715188522284458e-01 -7.992932373048834416e-01 -9.482182171589340625e-01 -9.498143580002186281e-01 5.711870218955704681e-01 -3.048134326605843381e+00 -1.539789973342586382e+00 -2.138556190386552425e-01 1.005276138469805458e+00 8.502843836011041156e-02 -1.449140589255645262e-01 -3.134107902487306974e-01 -1.244341938205890397e-01 3.572537555415048471e-01 -8.331335828667720822e-01 1.243570093037472679e+00 2.014433614268869022e-01 -2.724860270417460151e-01 -6.819028376994738794e-02 -4.392796596322012803e-01 4.811768140540278321e-02 7.902542670380983611e-03 5.864249218793939900e-01 -2.628773003148629495e-01 -1.262051696767051319e-02 1.285967069913464433e+00 -2.496401299654692707e+00 2.111806947337974361e+00
6.339723326040672124e-02 -3.718972164749014264e-01 1.020445132888960077e-01 1.152403402994883308e+00 6.919702492299736329e-01 1.139946922408775265e+00 -1.055138056258467794e+00 3.281578666394465493e+00 -1.791611015851888311e+00 -2.423311007483778812e-01 1.213077838009606335e+00 9.534385850135479457e-01 2.174180881540985322e+00 -1.577613471918840604e-01 -6.381519178998023012e-01 7.104605947102937691e-01 -9.578264296651850529e-01 1.112217574835877354e+00 -1.652281907208924316e+00 -1.316148735679689263e+00 -4.624360431259932902e-01 5.143023929376348002e-01 -3.345061774500392549e+00 1.637172562383065522e+00 -8.217261123696525393e-01 -1.212129100943829974e+00 -2.525286100987374216e-02 -7.510567709335217446e-01 5.403137293794979534e-01 -1.355738582126372771e+00 -4.356425771030755095e-02 -2.189242918068713684e-02 1.423434699869105424e+00 9.565789304122997161e-02 1.882057797009877576e-01 -6.688575744898894726e-01 -1.752217087465942347e-01 1.121191239082416774e-01 -6.985748990255471469e-01 -1.928106254592687197e-01 9.954437257680645579e-02 -1.158539083574202993e-03 -2.571267709888042097e-01 9.791269908986048875e-01 2.109682701907772406e-01 -2.277575738209138001e-01 1.115120350302710950e+00 5.656735482807979248e-02 -1.052398802952564660e-01 -5.959899398525692504e+00 4.337918970490214909e-01 -3.240870390073492535e-01 1.046683240629472156e+00 -3.003644985978824455e-01 -1.642487546833940881e-01 -4.858665062165651999e-02 -1.052435826838058253e+00 -9.104111736428993629e-01 3.082891527554332822e-01 -2.341760757477550151e-02 -2.293624564129400634e-01 -1.064232562353493838e+00 -3.200354946489466501e-01 -1.182373209860782814e-01 1.465652213744579047e-01 -6.639513954413402141e-02 2.523933700725589646e-01 3.509041591793325698e-02 4.042848887517934142e-01 -7.109989837118482203e-01 9.296029160650726153e-02 -1.829453026370889135e-01 4.817604544711858172e-01 -8.467054080033782348e-01 1.270880865016038863e-01 -8.239542303674896040e-01 6.231330759051499912e-01 -1.070931314524696948e-01 -3.220312363432474623e+00 -1.597092149453590015e-01 -1.395110399025148773e+00 2.271562442140200755e+00 2.479314776499342773e-02 2.943617954739609743e+00 1.110002826574468582e+00 -1.308663225941744335e+00 1.285525354390699038e+00 -1.036335578854610473e+00 -4.050762743042215508e-01 1.773413261911095107e-01 -1.891245377039269648e+00 -1.732697272280644407e-01 1.518037412173764311e+00 -3.712935214531011829e-01 4.578877616372166448e-02 3.298560802761548172e-01 1.969903135991301735e+00 -9.509929516884352285e-01 -9.013310657255655389e-01 1.279421041269922954e+00 1.961471460290739710e+00 -1.700521458904077576e+00 8.737328444137910932e-02 -1.600794538002961731e-01 8.784533898142397879e-02 1.756267089162449446e+00 1.815239453885725052e+00 -7.080329591072960227e-01 -2.785300220824056261e+00 -1.897204679941862482e+00 -1.912441551484422186e+00 -1.524314503426844880e-01 -2.403194696365526239e-01 -1.654839126411150330e-01 1.120243016237272293e+00 1.440602469884288972e+00 -4.283087624515284908e-01 1.122183170681269271e+00 -7.492431147649615264e-01 -1.560278065977671602e+00 1.694161578129267931e-01 4.297269829541906505e-01 5.744106710366830848e-01 -2.541998271522731834e-01 -1.007705316734698764e+00 -1.949240722562017025e-01 1.265055773698360753e+00 -3.786931563455258609e-01 -2.533215383130611453e-01 3.548723997953742715e-01 -3.107383856249689227e-02 4.136714721657142046e-01 -2.792495710125633690e-01 2.306819465542855330e+00 1.353001899923629070e+00 -7.227669228718995864e-01 -1.185236390338963552e+00 1.531156723154336374e+00 4.689116235429706125e-01 2.580508254642515653e-01 -7.022155810990959868e-01 9.394553833714559821e-02 9.711519431191318885e-01 3.138807879062481820e-01 -1.357520870836389726e+00 -1.125954979015941548e+00 6.268411208814720359e-01 3.405328432554052820e-01 1.157428367009391557e-01 -5.367697207847382801e-01 -6.501291448570194198e-03 7.357952168006327565e-01 -9.045567717492053461e-01 3.082546999730989001e-01 -2.200175248701997099e-01 -1.911383799644691961e-01 1.395846248749336604e+00 -2.883182118098068347e+00 1.307068627762355550e+00 -4.546157757567095281e-01 1.275002857601005735e+00 -1.563233806169586515e+00 1.594698966632926762e+00 6.524585643193324680e-01 -2.403566992102990962e+00 2.981408543195425143e+00 6.292996611444443111e+00 2.636099618711330361e+00 -1.427810717446209854e-01 -2.025412224759019428e-02 2.594273940957331770e-01 -6.711679677888238160e-01 -9.497500804212364311e-01 -5.744723775125059051e-01 -1.283412421814398019e-01 -4.147096836214338444e-01 1.147358384375732676e+00 3.406058625851289823e-01 -5.070457113808664040e-01 -1.405869437305496294e+00 -2.859125334277894392e+00 5.850396114971708750e-01 1.489768647158048465e+00 3.365064957079636487e-01 3.355618724072420012e-01 2.683501504997187759e-01 -1.585974699392838083e-01 5.770367958035776956e-01 -8.878790539961818329e-01 -5.148711209564688085e-01 -2.255896196370039963e-01 2.193994316707074121e-01
8.050175413787175049e-02 -8.242992724114658332e-01 -4.635930395476719479e-01 4.374053254290818926e-01 -7.093107973774612218e-02 1.199244788792016431e-01 7.830911736363277420e-02 -5.960516463283921373e-01 -3.885091139870473775e-02 9.019177914665144069e-01 -1.152575666906555663e+00 -5.802496463114213965e-01 1.957394204900744006e+00 -2.604417457141346315e+00 -1.514348907581452908e+00 -6.543354696256112324e-02 -6.486769857926547589e-01 -5.247647259134008424e-01 5.856972996853161001e-04 3.803479183388421836e-01 -1.382618951436074495e+00 5.275646572538630341e-01 2.867001137475418959e-01 1.922808239422663101e+00 7.940543575075227345e-01 2.521151767107242536e-01 1.152379748845817842e+00 1.643043933557610359e+00 5.861086761908019388e-02 1.913147576411962092e-01 -2.213021508527052816e+00 -7.555258624449923133e-01 1.513637740447594471e+00 -1.738609266885106086e+00 8.313080996236790199e-01 7.704320901212680095e-01 4.792551715527776368e-01 -3.773700666597573083e-01 2.086121112556076906e-01 1.061497937033277328e+00 -1.381272207601240254e+00 3.556910390412909018e-01 2.529734109452938529e-01 5.349740623382931437e-01 -5.783485726354453682e-01 7.742774320062960347e-02 6.071608688590344333e-02 -3.640219274980088793e-02 9.068795063433042758e-01 1.629215512325707382e-01 -1.367206216437419242e+00 -1.401343781524521381e-01 1.750828177539296204e+00 9.648933638087981990e-01 -3.425331615133296315e-01 4.886031884193090535e-01 -2.818114182004757828e-01 2.184203555876513270e-01 -1.220685732257933198e+00 -1.535894752056268520e-01 8.825630411040423784e-01 1.146703781511378528e+00 -2.531595588140261310e-01 -2.176346264621736026e-01 -2.563425845252220281e+00 2.218558636290890895e+00 1.883210679666501575e+00 1.010447655364393071e+00 1.483708042790979675e+00 -6.297356688181959816e-01 -1.701895456432399867e-01 6.753403539957129054e-01 -1.354311105652337144e+00 1.998139505107210612e+00 2.825215568930705134e-01 -4.236972318250334379e-02 2.761179673645532406e-01 2.254744342154679781e-01 -3.014258499820356152e-02 6.102533917390233764e-01 3.399810845174225382e-01 6.967550722094045801e-01 -6.154120531178145503e-01 -6.727260563033510277e-01 -6.733842587121281476e-01 1.099450504988127575e+00 -7.819105230655838401e-01 -6.610727883442037989e-01 5.144422609494999632e-01 -3.309369720443185864e-02 -6.689953856192271120e-01 -5.254537815600894834e-01 -1.006772006287878080e-01 -5.770223976258857107e-02 -1.006369371533133883e+00 -5.287206252342779855e-01 -6.307538256692731826e-01 -9.515148856297701574e-01 -8.249739298804623644e-01 2.254785479805228920e+00 1.094291329388704659e+00 1.575967451676265618e+00 2.946556211430041983e-01 -7.494364617225397485e-01 6.326574704484083655e-01 -4.021853259119205770e-01 6.331408378423540873e-01 8.311075535772548539e-01 -1.694203744221080443e+00 6.066317358288533246e-01 -3.151506557566194466e+00 6.335455294796257242e-01 -3.451613431627516548e-01 2.083023447469769085e+00 6.257597148926764552e-01 4.339060540292938306e-01 -6.229320156380938056e-02 2.307513663395862474e-02 6.447776507412819047e-01 3.271065425576145658e-01 -2.478528018932601162e-01 2.137085519379441079e-01 -2.632423969634815064e-01 -4.562875070308771153e-01 1.484837271298538042e+00 -2.833864759958542590e-01 -3.646580184196162033e-01 3.157515225649445423e-01 1.084431662993475154e+00 2.858634767795102394e-01 -5.681711178897282943e-01 -3.125484422491062730e-01 -4.140689647141397867e-01 2.443775960190430308e+00 -1.538748676563075901e-01 -7.431249176871248530e-01 9.365999162027530689e-01 -2.062026790629777562e+00 -4.802162499137186402e-01 -5.332143993360778378e-01 6.790283443673925112e-03 1.523743718525483459e-01 -2.699293220601521881e-01 9.877077905824053206e-01 -6.895081608446415600e-02 3.195068758393974084e-01 2.037599253734034277e-01 -7.323355403894977744e-01 -7.501543137246123871e-01 2.175415011057442172e+00 5.992516413204392878e-01 -6.374361227802570751e-01 -5.922525843002313106e-01 -4.748004782189989975e-02 1.966859978291970901e+00 -7.690272393550342533e-01 6.089935511909734256e-01 8.449539725312728011e-01 -7.051672075259560746e-01 -3.972920023791677302e-01 -1.166560925431174914e-02 -9.566920589513082385e-02 -7.877057895866139692e-01 1.800800652763807852e+00 -1.010478508602304482e+00 -1.129243934177300013e-01 7.568834049130952479e-01 -2.077991284366415004e-01 -9.000917940027897135e-02 -8.061246583991060755e-01 4.703771523437635382e-01 -1.719384100121862102e-01 -6.922175893538969893e-01 -1.925303752149065961e-01 -7.991420564391175096e-01 -2.884129312501949371e+00 7.272421850309525038e-01 -1.872450098724258272e+00 -4.282532266232879498e-02 -9.876944208459770280e-02 7.914266900787325643e-02 3.359372534684977318e-01 -1.028689118058894403e+00 -5.523860871536087624e-02 -8.456039474099402709e-01 -2.180745936347905811e+00 6.303352500749414000e-01 -7.627897430906067644e-01 4.660880380534428435e-01 3.371235604661922403e-01 -9.324244446720728607e-01 -7.101644036263440318e-01
7.398246496718655085e-02 -2.225032674045972769e-01 3.395995328085845144e-01 -5.449082907251417973e-01 -2.052125986583999695e-01 7.460312926983816428e-01 -1.958236498295726102e+00 -9.386989648219939975e-01 1.327358231233543684e+00 1.872333884861458742e-01 8.136050259307322507e-01 -3.661852536962320048e-01 1.878869629092363158e-01 -7.343415150743726194e-01 1.351798623645082964e-01 2.816077868302603315e-01 -4.970189232802835755e-01 -3.265825517337520578e-01 -2.272340972176832390e-03 5.319725565101427467e-01 -1.651511604702402547e+00 2.135833906361500834e+00 -1.343321696528917641e+00 -1.168206431453117922e-01 -6.638305535928537005e-01 2.589442838121033930e+00 -1.944437901860470719e-01 3.620627468906330824e-03 6.027858797231935295e-01 -3.937654772858913410e-01 -3.729781082430652650e-01 1.599262160520027454e-01 -3.862928230637429072e-01 3.519130600590362756e-01 4.933391604387136753e-01 -8.066270519564304742e-01 -4.505878855473722244e-01 -2.058826281417098503e-01 -2.036385693042851441e-01 2.320076073432133235e-01 1.126182264535222410e+00 -2.723898677835887017e-01 7.745407129698067550e-01 -3.155504622978883567e-01 3.901751888342645108e-02 -4.611767167985750815e-01 -3.462422349309154379e-01 1.062470328248119156e+00 1.234023072786412545e+00 2.459044199191533775e-01 2.380712970340731205e-01 -5.519078619659815305e-02 1.242043371981488703e-01 5.438911623153282714e-03 2.521249469027295187e-01 -3.782504123814967728e-02 8.960654464553479137e-01 1.039533002743498191e-01 -8.897199638582303782e-02 -2.266206320038776090e-01 2.901618470412043460e-01 1.144667467809223904e+00 1.721271804061409894e+00 9.551339704367808880e-02 7.066769593010886474e-01 -1.106962754198928880e-02 4.971258811717098602e-01 -3.736517372707981455e-01 2.701098135019340818e-01 7.925939709130483402e-02 5.774743975612881552e-01 1.065911492716507425e+00 3.804718455111197762e-03 -2.424185182557935803e-01 -6.607426586985515327e-02 1.135692260900788980e-01 2.252291509740721454e-01 -1.057094151542052440e+00 -1.233101075193492827e-03 -3.192081136522884055e-01 9.420367709433789816e-02 3.890958397279963288e-01 -1.567576399405620435e+00 5.352090611670518028e-01 6.742872301416693581e-01 5.667508405045387221e-01 -1.417597781476894747e+00 3.444301214242507236e-01 -3.836728689444306450e-01 3.590324447070987746e-01 7.574145948258037553e-01 1.814779226420213165e+00 -1.652623863929109538e+00 1.198442604606319434e-01 6.950884831415555798e-01 9.567866755475700202e-01 -1.068553044102357630e+00 -2.814031270187812295e-01 7.843952371587175065e-01 4.897213097612193700e+00 7.876209431823576468e-01 2.846047675168502877e+00 1.740043428227355804e+00 1.253698182602531741e+00 -9.552609829328496671e-01 -6.307954775404536196e-01 -8.209187859776366780e-01 -1.672165790601577440e+00 7.016854196276511857e-01 -1.375987562167644285e-01 -1.069192220347756184e+00 -2.657600211770542176e-01 5.313380082504309820e-01 -3.204977789969862267e-01 7.795039705084921833e-01 -1.229640370341093941e-01 1.268777702631743165e-01 5.775283907276331785e-01 -2.905649960165803680e-01 -5.919749051590283973e-01 5.936522928601466881e-02 -4.290574676915125951e-01 -1.619105934703395644e-01 -2.110659721108301135e-01 -6.482239574159885942e-01 -1.107759796178307554e-01 2.616004904859616231e-01 5.011789681920080231e-01 -3.676353558780692254e-01 1.073287473459866526e+00 1.047647404314204361e-01 1.943887685784383867e+00 -7.777597341252325824e-01 -8.963055874904253262e-01 1.184143671496266981e+00 -8.482053895865057092e-01 1.006118946085419408e+00 -3.066631871175009016e-01 6.820416772700754748e-02 -1.218846879278412121e-01 2.505689152707297751e-01 2.499081417587932785e-01 -5.164472071931111019e-01 1.874009215680049190e+00 -1.812133047048676060e+00 5.326348726839748027e-01 8.178411754959715729e-01 -9.194558003366349874e-01 2.488113091510419372e-01 -1.587954448825488196e-01 2.438639924519441227e-01 2.044258410916584834e-01 -5.374556911076358023e-01 -4.835442858430982760e-01 -1.527810689502841601e+00 1.042414695164425975e+00 -1.947584932127436885e-01 1.719106420980659189e-01 -7.701502972150102710e-01 -4.461018247550503635e-02 -2.344074750320907646e-02 5.323294256286515980e-01 -6.300143764006626013e-01 -1.195665813194290578e-01 -1.256806646322108229e-02 7.010935516803835921e-02 8.749967987268960634e-01 8.946050598608736026e-02 4.279184689919489082e-01 -1.131628375247221818e+00 -2.883440771075892473e-01 -7.212869958934146064e-01 -5.227854907013825825e-01 -2.895252418989651688e-01 -5.427619338077699362e-01 5.444321224200420195e-01 -1.015251504507202890e-01 7.823049302902183033e-01 -9.041207126533905569e-01 2.620005541375464708e-01 1.781692214083995529e-01 9.567563365302903522e-01 -1.505953741545752900e+00 -6.561331849545838368e-01 -3.249704700528799339e-01 4.120779024275889046e-01 -2.725672739015794654e+00 -5.573102639242730749e-01 -6.083368914440917541e-01 -4.250756002287265467e+00 -2.936309851119656145e+00 -2.979668420577220367e+00
-1.689395267092584030e+00 -4.553038029621343519e-01 1.196699396664323706e-01 -1.261295792438221208e-01 -5.662597598011151132e-03 3.642070469254774512e-01 -1.235660351278245805e+00 6.232857994328115936e-01 1.395224556005421057e-01 -1.971040592028969529e+00 7.546657255940847797e+00 2.338078937753452546e+00 3.684339405193434169e-01 5.766876399945467524e-01 -6.864171806265481068e-01 -1.834435824293585149e-01 1.487989957992454648e-01 3.707031961677291210e-01 8.176354872432288756e-01 4.142304299925429478e-01 -1.516961148391287317e-01 8.766176221585099404e-02 6.674444961935459553e-01 -3.982088577657691419e-01 5.002718829974119874e-01 4.730423578786793204e-01 -2.792526563363545433e-02 -4.322358654170218029e-01 -4.739941802682469119e-01 -1.013744323835229499e+00 2.545263572535025332e-01 1.024327498659481769e-03 1.658387248770964995e-01 -6.161540734895843974e-01 1.245317414744523621e+00 -5.347277506556334659e-02 -1.481740120432862184e+00 -5.244819045658793977e-01 -1.237927550044104041e+00 4.241188927431562838e-01 9.884626664699716070e-01 -6.922926655661481021e-01 -6.946750497535424396e-01 2.154023946992816019e-01 -2.892809870988329868e-01 -1.071236247359388383e+00 -2.053745781574349560e-02 2.085190373212415516e-01 -1.429541584093041218e+00 -4.694505267651569724e-01 1.255356544140271147e-01 1.067987915627946593e+00 3.940719527824781965e-01 -1.343898652077861300e+00 -5.899987552708013672e-01 8.062640121903392743e-01 1.698111821023194690e+00 -4.300535130554198893e-01 1.206792519226416172e+00 -7.043480540594075912e-01 9.098866685984048353e-01 -2.495810974369320756e-01 -6.657048877959731437e-01 -1.930044866374788781e-01 1.755302925477717269e+00 4.894459960349229477e-01 4.763426258939386093e-01 -4.418533338946464273e-01 -1.942555854347873534e-01 4.059000557564567679e-01 7.978462204468375063e-01 -1.276861250964537835e-02 -6.075922999691626414e-01 -5.566032105554693521e-01 2.400957836616947338e-01 -1.350473477076786999e+00 1.973022912564779130e+00 -2.190650339938106761e+00 6.326790677149463082e-01 3.834543251758913418e-01 1.349180212187666594e+00 -2.076622429044411078e+00 -2.654345195170886296e-01 -1.178565406081880429e+00 -6.315524103105473186e-01 9.277671484093424903e-02 4.713999371805274730e-01 8.210159736770578087e-01 -5.239846532148735303e-01 2.681763439261511048e-02 -9.417765753036592136e-01 8.838578486550588420e-02 -5.639817624019877879e-02 -8.470129119412287411e-01 9.111207981148623514e-01 8.730905828446013928e-01 8.497495941439726919e-02 -1.817908773185695770e-01 -7.158794517288046277e-01 1.795953609087921787e+00 -6.438299421167692493e-02 3.803124371152440814e-02 1.867421535165326940e+00 -7.753542100094048539e-01 -1.200766881862313645e-01 -2.412059860058743677e-01 -7.056125225931443312e-01 1.069578914262912656e-01 4.233167085574591343e-02 -6.880981678720891059e-01 -5.488904152982435614e-01 1.558463895588479697e-01 2.905397992056193424e-01 9.078693810596294433e-01 -3.632804213468708854e-01 5.392374655970208486e-02 1.705412725554302650e-02 -5.245004165086262216e-01 -1.536794123941386481e+00 -6.091416467329481277e-01 4.369456121842015262e-01 -5.815768497622446631e-01 2.592448457714239263e-01 5.765683408079558259e-01 -1.700336339476609115e+00 -1.349186382835248776e-01 2.496650696661143698e+00 -5.999041873022659122e-01 8.462595787155581251e-01 -7.718657372428856800e-02 -4.977234055459279216e-01 -1.808462540178479641e-02 2.295000618540250503e+00 -7.874475994073585561e+00 -2.222649261417315003e+00 8.422918523201482488e-01 -2.240871697948437546e+00 1.949661869259508018e+00 1.195696666432202043e-01 8.303819882657043072e-01 7.338026118521863150e-01 4.386075732663639037e-01 -1.678303013842792901e-01 -9.995821734132510628e-01 1.102929721783273198e+00 1.226061394743367949e-01 -1.085380914279883563e-01 -6.122855916761229533e-01 1.442047429859807384e+00 -1.138869630185034509e+00 -7.222840696985857178e-01 -7.380505884919583148e-02 6.213379316793365276e-02 -6.266570298952670592e-01 -8.561927786611431279e-02 -2.805922010823424517e-01 1.382949595302358503e+00 3.533297378998027649e-01 1.097183306222269339e+00 -5.986232637083097607e-01 -6.660699844445917561e-01 -6.251231097504371670e-01 -2.554462979638949527e-01 1.236757183885997119e-01 -9.298476850858365950e-01 -2.139512640761806750e-01 -3.829653013549951801e-01 -3.809289876528408336e-01 1.069008129361551235e-01 2.356544600643444010e-01 -9.821202691966453291e-02 3.696742406833828931e-01 -3.519984206839245622e-01 3.253396804665533715e-01 1.039809653443437565e+00 8.039222514328617231e-02 -2.910139106281916521e-01 2.720782500806832593e-01 -1.058233664462247869e+00 1.353875046556522355e+00 2.142124881571641493e-01 -4.301789828895930534e-01 9.708896905968846802e-01 3.359763342365188477e-01 -2.061942458446152648e-01 6.963436957039188524e-01 1.394077843996379684e-01 -2.767859399653356811e-01 2.052224716945315830e+00 -4.765385439546761942e-02 2.913635806578546150e-01 -2.774611116549641210e-01
6.933087655346978906e-01 1.380569782218123542e+00 -1.737499064540926730e+00 8.643534600887164271e-03 5.442614011702654603e-02 -3.207744296969253783e-01 -4.749326329213862108e-01 2.333717832574672357e+00 -1.026729423230886562e+00 7.790751105015232547e-02 2.609659422262498030e-01 -1.577541995251012352e+00 2.400877618198377750e+00 -6.819362620405448050e-01 3.914669110614897862e-01 -6.398329051453434113e-01 1.420004848254617924e-01 3.235836170087610930e-02 -1.050547608677878941e-01 4.548893411328575054e-01 -2.736620496268033498e-01 4.984435201187807252e+00 2.259912773725476054e+00 -2.742953123349354261e+00 -1.771736902651240564e-01 -2.269687593716449014e-01 7.484892673186588352e-02 5.189118666816026071e-01 -2.811393318346384618e-01 8.244442826296496385e-01 -6.567600199048176934e-01 -6.321226809912769973e-01 -1.336368919365576780e+00 -6.677185757903258967e-01 8.249842142930996491e-01 6.039115086863289239e-01 5.133006911467771216e-01 -1.739155883416770576e-01 6.148099007579098663e-01 -1.075522790546549867e+00 -6.068327960959095657e-01 2.211956043377844849e-01 8.877700392222280801e-01 9.443296807408299021e-01 1.137251377856579815e+00 8.110025553129029952e-01 -6.244669642241875707e-01 -7.390075530878444932e-01 -1.460407163299635713e-01 -1.315885454716178238e+00 9.807781533474980995e-02 1.754942456814785334e-01 2.053036157102386683e-01 1.128163556629768083e+00 2.799406835417794226e-01 -1.172068742618996851e+00 -1.971250908267399016e+00 -6.660638137970095185e-01 -2.331060854569865892e+00 1.565688181245440846e+00 -1.164087524191941947e+00 -1.613254103912860948e+00 9.417678335529175992e-01 -7.555446829201183156e+00 -1.448972953329660029e+00 2.262950274997856503e+00 2.581798948428477014e-01 4.451165780244119574e-01 6.275728568406047092e-01 -1.910538935146550710e+00 -8.455808074815066577e-01 -6.272494120631665337e-01 7.165304550487358037e-01 -1.125294719724636988e-01 6.584250663107711343e-01 5.429861340032596795e-01 -2.030605338920144831e+00 -6.530540318110230613e-01 6.556415900305283262e-02 1.093877896000691408e+00 2.603344792903292126e-02 -6.185333723531876160e-01 -5.202200439690471967e-01 -8.125740135638587214e-01 5.997360371556487157e-01 3.036205436388020318e-01 2.881162773676765321e-01 1.364175914253885034e-02 -2.697503732802658538e-01 3.122676777841121853e-01 7.606968651189479624e-01 5.657352547566208562e-02 -1.903577930453100309e-01 1.765759602026532704e+00 2.713158151498286763e+00 1.694550328926952121e+00 1.319517395038985574e+00 -3.493661252694477137e-01 7.452136818937288298e-02 6.103022426990498683e-01 1.547672461408324818e+00 2.127688137332251372e+00 -4.328755558830519878e-01 5.074971970956370093e-01 4.724576890202576429e-01 7.888144492688981121e-04 -7.441405034350427883e-01 9.908712759095904543e-01 -1.289716766760967172e-02 -8.568047012130530771e-01 4.046638693574721724e-01 -4.595209263639949970e-01 2.680817273298893300e-01 8.970830890857933726e-01 -7.976513308273636138e-01 -3.954850310788216583e-01 -1.175952136830782369e+00 8.457139906251576189e-01 -1.302952805824970361e-01 -1.556036774206113471e-01 1.111174221173839016e-01 -5.877891492157111264e-01 2.754527201331195663e+00 -3.953901059501808479e+00 4.850771775466644620e-01 -5.718318545679194287e+00 -9.118211666154516504e-01 -6.981804918009126837e-01 -1.459266621938176689e+00 8.578012607975923354e-01 1.240232286916087778e+00 -5.235331675001029250e-01 3.334689944355833102e-01 -1.477057627359171232e-01 -1.247319275664343363e-01 -7.573292342009154687e-01 1.430003868441080739e+00 -1.234451418572749537e+00 4.218763765676272204e-01 3.998044843864219100e-01 5.780693508323470065e-01 8.839565790163752546e-01 -3.326231014961782972e-01 2.779794460518761889e-01 -1.063105904949094738e+00 -3.625530562631088749e+00 8.242771609242960373e-01 -4.361670821475698012e-02 7.891312091781220728e-01 -9.336544604234751077e-01 6.685444141250884709e-01 -2.157500078464170690e-01 -5.123267572700396233e-01 2.061838071657886129e+00 8.115430011969849700e-01 -3.433317461546038230e-01 -5.978277643908267436e-01 -1.094703734335454037e-01 -4.476177471777652572e-01 4.176345705754374582e-01 1.316007839226560394e+00 -5.263577814308942893e-01 -5.728469260952054887e-01 -1.726384185583333730e+00 1.788330288220639774e+00 -9.335778415493285465e-01 -1.324135610533694773e+00 7.774044076686194016e-01 -1.319345131127313442e+00 1.086678292934059264e+00 -3.149141656880283247e+00 -8.675688816997191299e-01 4.576661325448862505e-01 -4.556956390836096049e-01 -1.571552867551772037e+00 -8.639801359099880118e-01 1.874459672953556311e+00 4.678091345082688868e-01 -1.421177271295252509e-01 -9.703857543776646735e-03 4.708157825427377596e-01 7.420831066869822967e-01 -1.737541230632738964e-01 1.862775037535865819e+00 -4.533682765038240525e-01 -1.908279963910802346e+00 2.291270976297390405e+00 1.865509148635450254e+00 5.443604914860242339e+00 4.537873663187875217e-01 1.170454089834965572e+00 7.107968950035284394e-02