1.354819999999999913e+00 1.701279999999999903e+00 1.205680000000000085e+00 4.101320000000000299e+00 4.498800000000000132e+00 1.999959999999999960e+00 1.304880000000000040e+00 4.798379999999999868e+00 4.257080000000000197e+00 4.468560000000000088e+00 1.667470000000000008e+00 4.968740000000000379e+00 6.997460000000000235e+00 1.379529999999999923e+00 1.387580000000000036e+00 9.991989999999999483e+00 4.332869999999999777e+00 1.164819999999999967e+00 7.441659999999999719e+00 4.473469999999999835e+00 4.398839999999999861e+00 1.050500000000000078e+01 1.871760000000000090e+00 3.841330000000000133e+00 1.851960000000000051e+00 7.500680000000000014e+00 1.670309999999999961e+00 4.432459999999999845e+00 1.041729999999999912e+01 1.975829999999999975e+00 1.563909999999999911e+00 1.093019999999999925e+01 4.475979999999999848e+00 4.883790000000000298e+00 7.596980000000000288e+00 4.679459999999999731e+00 7.354599999999999582e+00 7.424030000000000129e+00 1.453600000000000003e+00 1.031630000000000003e+01 1.060389999999999944e+01 1.839790000000000036e+00 6.844170000000000087e+00 9.927210000000000534e+00 3.774020000000000152e+00 1.065390000000000015e+01 7.875680000000000014e+00 4.997919999999999696e+00 1.228410000000000002e+00 1.771470000000000100e+00 7.855470000000000397e+00 4.438159999999999883e+00 4.497390000000000221e+00 7.775140000000000384e+00 1.097609999999999975e+00 4.389859999999999651e+00 1.105160000000000053e+01 4.472540000000000404e+00 1.517490000000000006e+00 1.075239999999999974e+01 7.385180000000000078e+00 1.773409999999999931e+00 7.477529999999999788e+00 1.071690000000000076e+01 4.745049999999999990e+00 7.626109999999999722e+00 7.385270000000000223e+00 4.192490000000000272e+00 1.082259999999999955e+01 1.038139999999999930e+01 1.533779999999999921e+00 1.048300000000000054e+01 1.802720000000000100e+00 7.931919999999999860e+00 8.066599999999999326e+00 4.833099999999999952e+00 1.049390000000000001e+01 7.704360000000000319e+00 1.705030000000000046e+00 1.023090000000000011e+01 1.079570000000000007e+01 4.431939999999999991e+00 7.449819999999999887e+00 1.060960000000000036e+01 7.510290000000000354e+00 7.856939999999999813e+00 7.401080000000000325e+00 1.046470000000000056e+01 1.055780000000000030e+01 8.409259999999999735e+00 7.197919999999999874e+00 9.906129999999999214e+00 1.078889999999999993e+01 1.024300000000000033e+01 7.657600000000000406e+00 1.128769999999999918e+01 4.305360000000000298e+00 1.642789999999999973e+00 1.226159999999999917e+00 1.536299999999999999e+00 4.862250000000000405e+00 1.375799999999999912e+00 4.764280000000000292e+00 4.716719999999999580e+00 4.626149999999999984e+00 1.546899999999999942e+00 1.394649999999999945e+00 4.878860000000000419e+00 1.048450000000000060e+01 1.494119999999999893e+00 1.133960000000000079e+00 7.476740000000000386e+00 4.762710000000000221e+00 1.401729999999999920e+00 1.043430000000000035e+01 4.739099999999999646e+00 4.238900000000000112e+00 7.387529999999999930e+00 1.749219999999999997e+00 4.681070000000000064e+00 4.660120000000000040e+00 7.433209999999999873e+00 1.686139999999999972e+00 1.591239999999999988e+00 1.083929999999999971e+01 1.461070000000000091e+00 4.312429999999999986e+00 1.067319999999999958e+01 4.858679999999999666e+00 2.104369999999999852e+00 7.678650000000000198e+00 4.684899999999999842e+00 1.072569999999999979e+01 7.792720000000000091e+00 1.662639999999999896e+00 7.687199999999999811e+00 1.086149999999999949e+01 1.135639999999999983e+00 1.071299999999999919e+01 1.108419999999999916e+01 4.662510000000000154e+00 7.796210000000000306e+00 7.349660000000000082e+00 4.690800000000000303e+00 4.502869999999999706e+00 1.406090000000000062e+00 7.547489999999999810e+00 1.739179999999999948e+00 4.658769999999999634e+00 7.657969999999999722e+00 4.333940000000000126e+00 4.153120000000000367e+00 1.055869999999999997e+01 1.468439999999999968e+00 1.187899999999999956e+00 1.091559999999999953e+01 1.048959999999999937e+01 1.477629999999999999e+00 7.568249999999999922e+00 7.807310000000000194e+00 4.450359999999999872e+00 7.347940000000000360e+00 1.046199999999999974e+01 4.661139999999999617e+00 1.034179999999999922e+01 7.427500000000000213e+00 1.415410000000000057e+00 1.095340000000000025e+01 4.639789999999999637e+00 7.402239999999999931e+00 7.446320000000000050e+00 2.061519999999999797e+00 1.038439999999999941e+01 7.994439999999999991e+00 4.645229999999999748e+00 1.052309999999999945e+01 1.039189999999999969e+01 1.832729999999999970e+00 7.194460000000000299e+00 1.081269999999999953e+01 1.087630000000000052e+01 7.721409999999999663e+00 8.060219999999999274e+00 8.017459999999999809e+00 1.050789999999999935e+01 8.055429999999999424e+00 1.073729999999999940e+01 1.043099999999999916e+01 1.102229999999999954e+01 7.826150000000000162e+00 7.204369999999999941e+00 1.082959999999999923e+01
1.396670000000000078e+00 1.733610000000000095e+00 1.270049999999999901e+00 4.145800000000000374e+00 4.512660000000000338e+00 2.086110000000000131e+00 1.365890000000000049e+00 4.749620000000000175e+00 4.176040000000000418e+00 4.413240000000000052e+00 1.782270000000000021e+00 4.967229999999999812e+00 7.089319999999999844e+00 1.466960000000000042e+00 1.261279999999999957e+00 9.913429999999999964e+00 4.368579999999999686e+00 1.105679999999999996e+00 7.598939999999999806e+00 4.450960000000000250e+00 4.396729999999999805e+00 1.050070000000000014e+01 1.939079999999999915e+00 3.917689999999999895e+00 1.912630000000000052e+00 7.552870000000000417e+00 1.647869999999999946e+00 4.455330000000000013e+00 1.045800000000000018e+01 1.965619999999999923e+00 1.463540000000000063e+00 1.093720000000000070e+01 4.491660000000000430e+00 4.881479999999999819e+00 7.526620000000000310e+00 4.585619999999999585e+00 7.396899999999999586e+00 7.501590000000000202e+00 1.322019999999999973e+00 1.043069999999999986e+01 1.063850000000000051e+01 1.866549999999999931e+00 6.925279999999999880e+00 9.981780000000000541e+00 3.752530000000000143e+00 1.064070000000000071e+01 8.006169999999999121e+00 5.007270000000000110e+00 1.223710000000000075e+00 1.841099999999999959e+00 7.812940000000000218e+00 4.408140000000000391e+00 4.559619999999999784e+00 7.819709999999999717e+00 1.036529999999999951e+00 4.291019999999999612e+00 1.102590000000000003e+01 4.399189999999999934e+00 1.505779999999999896e+00 1.081199999999999939e+01 7.389859999999999651e+00 1.851550000000000029e+00 7.417200000000000237e+00 1.086720000000000041e+01 4.784609999999999808e+00 7.607669999999999710e+00 7.360929999999999751e+00 4.160529999999999617e+00 1.096700000000000053e+01 1.036580000000000013e+01 1.591760000000000064e+00 1.041699999999999982e+01 1.680269999999999930e+00 7.959299999999999820e+00 8.046440000000000481e+00 4.803869999999999862e+00 1.048070000000000057e+01 7.757920000000000371e+00 1.629520000000000080e+00 1.036139999999999972e+01 1.071119999999999983e+01 4.482529999999999681e+00 7.425080000000000346e+00 1.050660000000000061e+01 7.468169999999999753e+00 7.948520000000000252e+00 7.474140000000000228e+00 1.050389999999999979e+01 1.069909999999999961e+01 8.394009999999999749e+00 7.228509999999999991e+00 1.001340000000000074e+01 1.085999999999999943e+01 1.036430000000000007e+01 7.716129999999999711e+00 1.126459999999999972e+01 4.352459999999999773e+00 1.587190000000000101e+00 1.174670000000000103e+00 1.553600000000000092e+00 4.860479999999999912e+00 1.397019999999999929e+00 4.765950000000000131e+00 4.686790000000000234e+00 4.584500000000000242e+00 1.574489999999999945e+00 1.400479999999999947e+00 4.897000000000000242e+00 1.034270000000000067e+01 1.444460000000000077e+00 1.171720000000000095e+00 7.359960000000000058e+00 4.761930000000000440e+00 1.332410000000000094e+00 1.038129999999999953e+01 4.751870000000000260e+00 4.292510000000000048e+00 7.330869999999999997e+00 1.658199999999999896e+00 4.744110000000000049e+00 4.756179999999999630e+00 7.464509999999999756e+00 1.656649999999999956e+00 1.544680000000000053e+00 1.085079999999999956e+01 1.518920000000000048e+00 4.454360000000000319e+00 1.073310000000000031e+01 4.779700000000000060e+00 2.138990000000000169e+00 7.664679999999999715e+00 4.757080000000000197e+00 1.071390000000000065e+01 7.775820000000000398e+00 1.643990000000000062e+00 7.605999999999999872e+00 1.079729999999999990e+01 1.164220000000000033e+00 1.071010000000000062e+01 1.107699999999999996e+01 4.622889999999999944e+00 7.644040000000000390e+00 7.360680000000000334e+00 4.720640000000000391e+00 4.528870000000000395e+00 1.340750000000000108e+00 7.574869999999999770e+00 1.810459999999999958e+00 4.587449999999999584e+00 7.659500000000000419e+00 4.354040000000000354e+00 4.165210000000000079e+00 1.057080000000000020e+01 1.494729999999999892e+00 1.149310000000000054e+00 1.084469999999999956e+01 1.055780000000000030e+01 1.434479999999999977e+00 7.544389999999999930e+00 7.740070000000000228e+00 4.372889999999999944e+00 7.357980000000000409e+00 1.048670000000000080e+01 4.551919999999999966e+00 1.033859999999999957e+01 7.407650000000000290e+00 1.383780000000000010e+00 1.103149999999999942e+01 4.729020000000000223e+00 7.358159999999999812e+00 7.538000000000000256e+00 2.004210000000000047e+00 1.041539999999999999e+01 7.960740000000000371e+00 4.695940000000000225e+00 1.059590000000000032e+01 1.034779999999999944e+01 1.733209999999999917e+00 7.104079999999999728e+00 1.085940000000000083e+01 1.094120000000000026e+01 7.648880000000000123e+00 8.065400000000000347e+00 7.900470000000000326e+00 1.053040000000000020e+01 8.011829999999999785e+00 1.073659999999999926e+01 1.034750000000000014e+01 1.104870000000000019e+01 7.825479999999999769e+00 7.257249999999999979e+00 1.085829999999999984e+01
1.420879999999999921e+00 1.739130000000000065e+00 1.306899999999999951e+00 4.187619999999999898e+00 4.511409999999999698e+00 2.096589999999999954e+00 1.410169999999999924e+00 4.726079999999999615e+00 4.151399999999999757e+00 4.387579999999999814e+00 1.834049999999999958e+00 4.947160000000000224e+00 7.144589999999999996e+00 1.513160000000000061e+00 1.215379999999999905e+00 9.900389999999999802e+00 4.388819999999999943e+00 1.083749999999999991e+00 7.669590000000000352e+00 4.433830000000000382e+00 4.405960000000000321e+00 1.049109999999999943e+01 1.967859999999999943e+00 3.969829999999999970e+00 1.930190000000000072e+00 7.602540000000000298e+00 1.640689999999999982e+00 4.461529999999999774e+00 1.048220000000000063e+01 1.955459999999999976e+00 1.439130000000000020e+00 1.092600000000000016e+01 4.490169999999999995e+00 4.870180000000000398e+00 7.496109999999999829e+00 4.538380000000000081e+00 7.436689999999999579e+00 7.551160000000000316e+00 1.255400000000000071e+00 1.049070000000000036e+01 1.065160000000000018e+01 1.877680000000000016e+00 6.974750000000000227e+00 1.001290000000000013e+01 3.753289999999999793e+00 1.063829999999999920e+01 8.076050000000000395e+00 5.009789999999999743e+00 1.276610000000000023e+00 1.874530000000000030e+00 7.792480000000000295e+00 4.416789999999999772e+00 4.579279999999999795e+00 7.840559999999999974e+00 1.076400000000000023e+00 4.232199999999999740e+00 1.100859999999999950e+01 4.361839999999999939e+00 1.488939999999999930e+00 1.083610000000000007e+01 7.389700000000000379e+00 1.868120000000000003e+00 7.395069999999999588e+00 1.092009999999999970e+01 4.806689999999999685e+00 7.587299999999999933e+00 7.333890000000000242e+00 4.146340000000000359e+00 1.102960000000000029e+01 1.035169999999999924e+01 1.626109999999999944e+00 1.038199999999999967e+01 1.645350000000000090e+00 7.926260000000000083e+00 8.030960000000000321e+00 4.792309999999999626e+00 1.047760000000000069e+01 7.768279999999999852e+00 1.603220000000000089e+00 1.042730000000000068e+01 1.068130000000000024e+01 4.512780000000000236e+00 7.412560000000000038e+00 1.045650000000000013e+01 7.454069999999999752e+00 7.972900000000000098e+00 7.522059999999999746e+00 1.054499999999999993e+01 1.076880000000000059e+01 8.367739999999999512e+00 7.259759999999999991e+00 1.007210000000000072e+01 1.088499999999999979e+01 1.045330000000000048e+01 7.737870000000000026e+00 1.124820000000000064e+01 4.378120000000000012e+00 1.557080000000000020e+00 1.158849999999999936e+00 1.554850000000000065e+00 4.850340000000000096e+00 1.413489999999999913e+00 4.760760000000000325e+00 4.668140000000000178e+00 4.577139999999999986e+00 1.591169999999999973e+00 1.416989999999999972e+00 4.902219999999999800e+00 1.026570000000000071e+01 1.423839999999999995e+00 1.193519999999999914e+00 7.289600000000000080e+00 4.750440000000000218e+00 1.300340000000000051e+00 1.035849999999999937e+01 4.759529999999999816e+00 4.317309999999999981e+00 7.309289999999999843e+00 1.606349999999999945e+00 4.764780000000000015e+00 4.800169999999999604e+00 7.484490000000000087e+00 1.636149999999999993e+00 1.531649999999999956e+00 1.085539999999999949e+01 1.553549999999999986e+00 4.532700000000000173e+00 1.076420000000000066e+01 4.733369999999999855e+00 2.138630000000000031e+00 7.654230000000000089e+00 4.788459999999999717e+00 1.070289999999999964e+01 7.764599999999999724e+00 1.640479999999999938e+00 7.561130000000000351e+00 1.076490000000000080e+01 1.182309999999999972e+00 1.068089999999999939e+01 1.106419999999999959e+01 4.606900000000000439e+00 7.578649999999999665e+00 7.373039999999999594e+00 4.732370000000000410e+00 4.544570000000000221e+00 1.307860000000000023e+00 7.599890000000000256e+00 1.842519999999999936e+00 4.549170000000000158e+00 7.657770000000000188e+00 4.372919999999999696e+00 4.186280000000000001e+00 1.058140000000000036e+01 1.511859999999999982e+00 1.131729999999999903e+00 1.080390000000000050e+01 1.056509999999999927e+01 1.408209999999999962e+00 7.533280000000000420e+00 7.702480000000000437e+00 4.348110000000000142e+00 7.367119999999999891e+00 1.046310000000000073e+01 4.493780000000000108e+00 1.033929999999999971e+01 7.399519999999999875e+00 1.366700000000000026e+00 1.105579999999999963e+01 4.777280000000000193e+00 7.341029999999999944e+00 7.592060000000000031e+00 1.968739999999999934e+00 1.046010000000000062e+01 7.933559999999999945e+00 4.718440000000000190e+00 1.062780000000000058e+01 1.034699999999999953e+01 1.684250000000000025e+00 7.070809999999999818e+00 1.088250000000000028e+01 1.094599999999999973e+01 7.611209999999999809e+00 8.059210000000000207e+00 7.828289999999999971e+00 1.054959999999999987e+01 7.985839999999999606e+00 1.072230000000000061e+01 1.031739999999999924e+01 1.106739999999999924e+01 7.807710000000000150e+00 7.286880000000000024e+00 1.086819999999999986e+01
1.322289999999999965e+00 1.458800000000000097e+00 1.567050000000000054e+00 4.208309999999999995e+00 4.865429999999999922e+00 2.047709999999999919e+00 1.683249999999999913e+00 4.520990000000000286e+00 4.677730000000000388e+00 4.351939999999999920e+00 1.643110000000000070e+00 5.185800000000000409e+00 7.434330000000000105e+00 1.815530000000000088e+00 1.556319999999999926e+00 1.045800000000000018e+01 4.827569999999999695e+00 1.593970000000000109e+00 7.813390000000000057e+00 4.076909999999999812e+00 4.666590000000000238e+00 1.058079999999999998e+01 2.197960000000000136e+00 4.344219999999999970e+00 2.009279999999999955e+00 8.336529999999999774e+00 2.265099999999999891e+00 4.486089999999999911e+00 1.080659999999999954e+01 1.764389999999999903e+00 1.434600000000000097e+00 1.089899999999999913e+01 4.783850000000000158e+00 4.813880000000000159e+00 7.915239999999999831e+00 4.662340000000000373e+00 8.045730000000000715e+00 7.818710000000000271e+00 1.624409999999999910e+00 1.077619999999999933e+01 1.079749999999999943e+01 2.170380000000000198e+00 7.648670000000000080e+00 1.072330000000000005e+01 4.442470000000000141e+00 1.089220000000000077e+01 8.252779999999999561e+00 4.793289999999999829e+00 2.065519999999999801e+00 1.476390000000000091e+00 7.793610000000000149e+00 5.031109999999999971e+00 4.025409999999999933e+00 7.808629999999999960e+00 1.211470000000000047e+00 4.040320000000000356e+00 1.094740000000000002e+01 4.195960000000000356e+00 1.218490000000000073e+00 1.068800000000000061e+01 7.993330000000000268e+00 1.802070000000000061e+00 7.767269999999999897e+00 1.125779999999999959e+01 4.803329999999999878e+00 7.282009999999999650e+00 6.965849999999999653e+00 3.898530000000000051e+00 1.097690000000000055e+01 1.071410000000000018e+01 1.187030000000000030e+00 1.093829999999999991e+01 1.979689999999999950e+00 7.336059999999999803e+00 7.834120000000000417e+00 4.565220000000000056e+00 1.052480000000000082e+01 7.785490000000000244e+00 1.670279999999999987e+00 1.021809999999999974e+01 1.088199999999999967e+01 4.553390000000000271e+00 7.228299999999999947e+00 1.033840000000000003e+01 7.737090000000000245e+00 7.965819999999999901e+00 7.511650000000000382e+00 1.073990000000000045e+01 1.076740000000000030e+01 8.116709999999999425e+00 8.050219999999999487e+00 1.090269999999999939e+01 1.100830000000000020e+01 1.069580000000000020e+01 7.223910000000000053e+00 1.072250000000000014e+01 4.327169999999999739e+00 1.500389999999999890e+00 1.477279999999999927e+00 1.121909999999999963e+00 4.475690000000000168e+00 1.481149999999999967e+00 4.550270000000000259e+00 4.518229999999999968e+00 4.709290000000000198e+00 1.348340000000000094e+00 1.644749999999999934e+00 4.593270000000000408e+00 1.017140000000000022e+01 1.342340000000000089e+00 1.365289999999999893e+00 7.290910000000000224e+00 4.569779999999999731e+00 1.512489999999999890e+00 1.057360000000000078e+01 4.699480000000000324e+00 4.207250000000000156e+00 7.454100000000000392e+00 1.156709999999999905e+00 4.826279999999999681e+00 4.700520000000000032e+00 7.374010000000000176e+00 1.725170000000000092e+00 1.433280000000000109e+00 1.091960000000000086e+01 1.648179999999999978e+00 4.590010000000000367e+00 1.068500000000000050e+01 4.583770000000000344e+00 1.409489999999999910e+00 7.796129999999999782e+00 4.813909999999999911e+00 1.075539999999999985e+01 7.690549999999999997e+00 1.671850000000000058e+00 7.397459999999999702e+00 1.060759999999999970e+01 1.563199999999999923e+00 1.087710000000000043e+01 1.109989999999999988e+01 4.709939999999999571e+00 7.589710000000000178e+00 7.587629999999999875e+00 4.519339999999999691e+00 4.617569999999999730e+00 1.157010000000000094e+00 7.555410000000000181e+00 1.628370000000000095e+00 4.355070000000000441e+00 7.427159999999999762e+00 4.331279999999999575e+00 4.406550000000000189e+00 1.040530000000000044e+01 1.400269999999999904e+00 1.222909999999999942e+00 1.047530000000000072e+01 1.071129999999999960e+01 1.307209999999999983e+00 7.316880000000000273e+00 7.574329999999999785e+00 4.514809999999999768e+00 7.367060000000000386e+00 1.050859999999999950e+01 4.351329999999999920e+00 1.014910000000000068e+01 7.013849999999999696e+00 1.055679999999999952e+00 1.028069999999999951e+01 4.688609999999999722e+00 7.706249999999999822e+00 7.549599999999999866e+00 1.629410000000000025e+00 1.097020000000000017e+01 7.810830000000000162e+00 4.626859999999999751e+00 1.075919999999999987e+01 1.034159999999999968e+01 1.583280000000000021e+00 7.158199999999999896e+00 1.042340000000000089e+01 1.086050000000000004e+01 7.589669999999999916e+00 7.932760000000000034e+00 7.341350000000000264e+00 1.058450000000000024e+01 7.481130000000000280e+00 1.061239999999999917e+01 1.040000000000000036e+01 1.059680000000000000e+01 7.796820000000000306e+00 7.855240000000000222e+00 1.073610000000000042e+01
1.345599999999999907e+00 1.525830000000000020e+00 1.550489999999999924e+00 4.060719999999999885e+00 4.615940000000000154e+00 1.979670000000000041e+00 1.749919999999999920e+00 4.532930000000000348e+00 4.660680000000000156e+00 4.387730000000000352e+00 1.496890000000000054e+00 5.038319999999999688e+00 7.311759999999999593e+00 1.880300000000000082e+00 1.663599999999999968e+00 1.047739999999999938e+01 4.761809999999999654e+00 1.437019999999999964e+00 7.667810000000000237e+00 4.068260000000000431e+00 4.742960000000000065e+00 1.049479999999999968e+01 2.126459999999999795e+00 4.464480000000000004e+00 1.991219999999999990e+00 8.387000000000000455e+00 2.268829999999999902e+00 4.498249999999999638e+00 1.100000000000000000e+01 1.804480000000000084e+00 1.504869999999999930e+00 1.080390000000000050e+01 4.743420000000000414e+00 4.826389999999999958e+00 7.979619999999999713e+00 4.583560000000000301e+00 8.122220000000000439e+00 7.898909999999999876e+00 1.478080000000000060e+00 1.066089999999999982e+01 1.076640000000000086e+01 2.220229999999999926e+00 7.564750000000000085e+00 1.060599999999999987e+01 4.605979999999999741e+00 1.073760000000000048e+01 8.148849999999999483e+00 4.805979999999999919e+00 2.008799999999999919e+00 1.356800000000000006e+00 7.719750000000000334e+00 4.955099999999999838e+00 4.107000000000000206e+00 7.943970000000000198e+00 1.103250000000000064e+00 4.102170000000000094e+00 1.096199999999999974e+01 4.324889999999999901e+00 1.073509999999999964e+00 1.071310000000000073e+01 7.958520000000000039e+00 1.659080000000000110e+00 7.849059999999999704e+00 1.120800000000000018e+01 4.754360000000000142e+00 7.268299999999999983e+00 7.056759999999999700e+00 3.955700000000000216e+00 1.094299999999999962e+01 1.083590000000000053e+01 1.181110000000000104e+00 1.103950000000000031e+01 1.777120000000000033e+00 7.276589999999999669e+00 7.817339999999999733e+00 4.564070000000000071e+00 1.043759999999999977e+01 7.644759999999999778e+00 1.692709999999999937e+00 1.027529999999999966e+01 1.074510000000000076e+01 4.623660000000000103e+00 7.365310000000000024e+00 1.041440000000000055e+01 7.678069999999999951e+00 7.977350000000000385e+00 7.608929999999999971e+00 1.066039999999999921e+01 1.058070000000000022e+01 7.999880000000000102e+00 8.079890000000000683e+00 1.085330000000000084e+01 1.098099999999999987e+01 1.053909999999999947e+01 7.216429999999999900e+00 1.064789999999999992e+01 4.341990000000000016e+00 1.400400000000000089e+00 1.525970000000000049e+00 1.134279999999999955e+00 4.368520000000000181e+00 1.474890000000000034e+00 4.633110000000000284e+00 4.533039999999999736e+00 4.763650000000000162e+00 1.301469999999999905e+00 1.685319999999999929e+00 4.519540000000000113e+00 1.031920000000000037e+01 1.450779999999999959e+00 1.423470000000000013e+00 7.399720000000000297e+00 4.545810000000000350e+00 1.485389999999999988e+00 1.070710000000000051e+01 4.753569999999999851e+00 4.216510000000000424e+00 7.500880000000000436e+00 1.135739999999999972e+00 4.812809999999999810e+00 4.707169999999999632e+00 7.439129999999999576e+00 1.592649999999999899e+00 1.489559999999999995e+00 1.091810000000000080e+01 1.724259999999999904e+00 4.539979999999999905e+00 1.071509999999999962e+01 4.450569999999999915e+00 1.345839999999999925e+00 7.779639999999999667e+00 4.841680000000000206e+00 1.079609999999999914e+01 7.641539999999999999e+00 1.753659999999999997e+00 7.425010000000000332e+00 1.060369999999999990e+01 1.548089999999999966e+00 1.093759999999999977e+01 1.107269999999999932e+01 4.804929999999999701e+00 7.559179999999999566e+00 7.616900000000000226e+00 4.599190000000000111e+00 4.712760000000000282e+00 1.168390000000000040e+00 7.618339999999999890e+00 1.628290000000000015e+00 4.367510000000000225e+00 7.480789999999999829e+00 4.406329999999999636e+00 4.520889999999999631e+00 1.039719999999999978e+01 1.300130000000000008e+00 1.245470000000000077e+00 1.042120000000000068e+01 1.068030000000000079e+01 1.343939999999999912e+00 7.170259999999999856e+00 7.558659999999999712e+00 4.581080000000000041e+00 7.385839999999999961e+00 1.046369999999999933e+01 4.357070000000000221e+00 1.020059999999999967e+01 6.968790000000000262e+00 1.070889999999999898e+00 1.028250000000000064e+01 4.656559999999999810e+00 7.637559999999999683e+00 7.596630000000000216e+00 1.620589999999999975e+00 1.103909999999999947e+01 7.774029999999999774e+00 4.615300000000000402e+00 1.076089999999999947e+01 1.043590000000000018e+01 1.631899999999999906e+00 7.123599999999999710e+00 1.043989999999999974e+01 1.089700000000000024e+01 7.647260000000000169e+00 7.932859999999999800e+00 7.417650000000000077e+00 1.065220000000000056e+01 7.430530000000000079e+00 1.059769999999999968e+01 1.051909999999999989e+01 1.063359999999999950e+01 7.743979999999999642e+00 7.823909999999999698e+00 1.063390000000000057e+01
1.340149999999999952e+00 1.730949999999999989e+00 1.582000000000000073e+00 3.967750000000000110e+00 4.850979999999999848e+00 1.732169999999999987e+00 1.615660000000000096e+00 4.913350000000000328e+00 4.530070000000000263e+00 4.625619999999999621e+00 2.021150000000000002e+00 5.129369999999999763e+00 7.093270000000000408e+00 1.575790000000000024e+00 1.203300000000000036e+00 1.010679999999999978e+01 4.723250000000000171e+00 1.088070000000000093e+00 7.744839999999999947e+00 4.687400000000000233e+00 4.681420000000000137e+00 1.066929999999999978e+01 2.397419999999999884e+00 4.325300000000000367e+00 1.574759999999999938e+00 7.451139999999999652e+00 1.565250000000000030e+00 4.311200000000000365e+00 1.064439999999999920e+01 1.661030000000000006e+00 1.275249999999999995e+00 1.096649999999999991e+01 4.641829999999999679e+00 4.776360000000000383e+00 7.667239999999999611e+00 4.357470000000000176e+00 8.470010000000000261e+00 7.858410000000000117e+00 1.217449999999999921e+00 1.100120000000000076e+01 1.078769999999999918e+01 1.838119999999999976e+00 7.596790000000000376e+00 1.065440000000000076e+01 4.143589999999999662e+00 1.097470000000000034e+01 7.994930000000000092e+00 5.035219999999999807e+00 1.887469999999999981e+00 1.748979999999999979e+00 7.930419999999999803e+00 4.587320000000000064e+00 4.370129999999999626e+00 7.512179999999999858e+00 9.778799999999999715e-01 4.041500000000000092e+00 1.142800000000000082e+01 3.698599999999999888e+00 1.690639999999999921e+00 1.093469999999999942e+01 7.941589999999999705e+00 1.897969999999999935e+00 7.642689999999999984e+00 1.125239999999999974e+01 4.868400000000000283e+00 7.283470000000000333e+00 7.116150000000000198e+00 4.511459999999999582e+00 1.101510000000000034e+01 1.045739999999999981e+01 1.530270000000000019e+00 1.121540000000000070e+01 1.964599999999999902e+00 7.906579999999999941e+00 7.738749999999999574e+00 4.462040000000000006e+00 1.029480000000000040e+01 7.322350000000000136e+00 1.567039999999999988e+00 1.028430000000000000e+01 1.099089999999999989e+01 4.903800000000000381e+00 7.169629999999999725e+00 1.041310000000000002e+01 7.811180000000000234e+00 7.738349999999999618e+00 7.745589999999999975e+00 1.075929999999999964e+01 1.053889999999999993e+01 7.850019999999999776e+00 8.112399999999999167e+00 1.029560000000000031e+01 1.101730000000000054e+01 1.114550000000000018e+01 7.546979999999999578e+00 1.114649999999999963e+01 4.204699999999999882e+00 1.544249999999999901e+00 1.293209999999999971e+00 9.595920000000000005e-01 5.017549999999999955e+00 1.510140000000000038e+00 4.700660000000000061e+00 4.697330000000000005e+00 4.699849999999999639e+00 1.093229999999999924e+00 1.790429999999999966e+00 4.465440000000000076e+00 1.019030000000000058e+01 1.489090000000000025e+00 1.251659999999999995e+00 7.099610000000000198e+00 4.572300000000000253e+00 1.160009999999999986e+00 1.113749999999999929e+01 5.020640000000000214e+00 4.387229999999999741e+00 7.409229999999999983e+00 1.346070000000000100e+00 4.638670000000000293e+00 4.613990000000000258e+00 7.298910000000000231e+00 1.533449999999999980e+00 1.292019999999999946e+00 1.062609999999999921e+01 1.618630000000000013e+00 4.584850000000000314e+00 1.053860000000000063e+01 4.531649999999999956e+00 1.392260000000000053e+00 7.594920000000000115e+00 4.866419999999999746e+00 1.095100000000000051e+01 7.616939999999999600e+00 1.772270000000000012e+00 7.515950000000000131e+00 1.055070000000000086e+01 1.316510000000000069e+00 1.077529999999999966e+01 1.074559999999999960e+01 4.696629999999999860e+00 7.689429999999999765e+00 7.130499999999999616e+00 4.757889999999999731e+00 4.570660000000000167e+00 1.339450000000000029e+00 7.630460000000000242e+00 1.705929999999999946e+00 4.565220000000000056e+00 7.555640000000000356e+00 4.458610000000000184e+00 4.394250000000000433e+00 1.076600000000000001e+01 9.275879999999999681e-01 1.121680000000000010e+00 1.038429999999999964e+01 1.075980000000000025e+01 1.612640000000000073e+00 7.267129999999999868e+00 7.882579999999999920e+00 4.547589999999999577e+00 7.475450000000000372e+00 1.052970000000000006e+01 4.389429999999999943e+00 1.038899999999999935e+01 7.608189999999999564e+00 1.608270000000000088e+00 1.080380000000000074e+01 4.622480000000000366e+00 7.313769999999999882e+00 7.662349999999999994e+00 1.696399999999999908e+00 1.057140000000000057e+01 7.888499999999999623e+00 4.625420000000000087e+00 1.077529999999999966e+01 1.069870000000000054e+01 1.510699999999999932e+00 7.174190000000000289e+00 1.098499999999999943e+01 1.070439999999999969e+01 7.353760000000000296e+00 7.903139999999999610e+00 7.726399999999999935e+00 1.054540000000000077e+01 7.665219999999999700e+00 1.062219999999999942e+01 9.986090000000000799e+00 1.116360000000000063e+01 7.839870000000000339e+00 7.092500000000000249e+00 1.072749999999999915e+01