-1.052115007333697940e+04
-1.052082045594421652e+04
-1.052118453121414314e+04
-1.052269370519435142e+04
-1.052412703492405490e+04
-1.052085250084266227e+04
-1.052336570787220626e+04
-1.052255599512276785e+04
-1.052138560265785782e+04
-1.052312953610132899e+04
-1.052338764964936490e+04
-1.052079606453656561e+04
-1.051148333582495798e+04
-1.052086593756148795e+04
-1.052329704119735834e+04
-1.052095221888115339e+04
-1.052330455336206978e+04
-1.052306669394052551e+04
-1.052143086478712758e+04
-1.052257916958196074e+04
-1.052312327207197995e+04
-1.052099786775612847e+04
-1.052259060898375719e+04
-1.052128657846429996e+04
-1.052377952815205208e+04
-1.052321813300281065e+04
-1.052343388291328301e+04
-1.052292953359749299e+04
-1.052145106818490240e+04
-1.052444038890521369e+04
-1.052085080185692459e+04
-1.052306042236789654e+04
-1.052143903090926142e+04
-1.052336453472131325e+04
-1.051091038140491401e+04
-1.052149602437989415e+04
-1.052287161816285879e+04
