8.135222364090032299e-01 -4.422734521508737138e-01 5.587624229886376526e-01 1.270132159776054648e+00 -2.636537734689672896e-01 -9.267484773376334362e-01 1.238117297457259181e+00 2.316101147947877137e-02 6.328045375491195834e-01 -1.322806864420975892e-01 -1.668537964043825261e-01 -1.237458066607218576e+00 5.289880199628437252e-01 3.051909734484938852e-01 1.214583990240315908e-01 1.419336875653835817e+00 2.758377171201910061e-01 2.883399633425343667e-01 1.668661376995470846e-01 -1.796270368997146261e-01 3.002703962222526557e-01 -3.613587788456206207e-01 -2.061654494892312395e-01 9.801693161193790749e-01 -6.754735371393637555e-01 1.254697313290230154e+00 2.766234462456688137e-01 -1.889390583220160735e-01 2.043888172061647801e-01 -1.898312311182882850e-01 1.507216667417594080e-01 -5.361932794564264748e-01 -5.918422362360092892e-01 -4.317854081435148483e-01 -1.186409841820861531e-02 -2.623008589865510887e-01 7.831281975218216118e-01 8.140272010694870053e-01 -1.867561917397824178e-01 6.787234115327012152e-01 -6.026665805366027834e-02 1.759745277516331363e-01 6.177075340184249308e-01 6.922103902650509344e-01 3.685496401615112605e-01 1.285145345343756684e-01 3.383165523321008950e-01 -5.799277441958787527e-02 1.990890022639288492e+00 2.263717492180587487e-01 -1.563930060905121266e-01 6.277240377063707522e-01 -3.511998360426503707e-01 1.078814316811067403e-01 2.397560895122899272e+00 -6.171557752804421870e-01 -6.751758033935185699e-01 -1.497940127218890805e-01 -7.010781250614278592e-01 8.725809901984310502e-02 -1.088193701136142277e-01 -4.928547646035040808e-01 7.583108813871307363e-02 -9.064326486142204597e-01 -4.378897212642913345e-02 -5.808111752414093498e-01 -7.267870997717589265e-01 -9.475389317042506865e-02 -2.764002744914427767e-01 -4.028486705270163393e-01 1.994605266704456425e-01 -3.434957825361662498e-01 8.702721395613924327e-02 -2.298133250629524227e+00 -4.539436893908722070e-01 -3.159474406256820855e-02 -4.010972350549108639e-02 2.652709973561580281e-02 1.427003391054194048e-01 3.402237966556590637e-02 4.979203520479291711e-01 8.405069925069719172e-01 7.095781921060269337e-02 1.008000993598016787e-01 6.135114936624704030e-02 -6.277080968667830829e-01 5.856273656793835602e-01 1.930429503407417924e+00 2.160996778760799486e-01 -8.964500834879770563e-01 9.364569628670967871e-01 5.923055490253126276e-01 -2.195660391554291324e-01 1.984385131646295264e+00 2.300108886297119459e-01 -1.440619953385771645e-01 3.891529182181325264e-01 -3.157623211982135691e-01 4.860176870823312290e-01 -7.569440829476543620e-01 -1.028381614121043786e+00 5.877043028114546930e-01 -8.517247155909360989e-01 -5.000888204524708280e-01 5.684138300279648615e-01 2.362463280116120223e-01 1.201425598491722813e+00 -2.058697726259134109e-01 -1.530082002033755106e+00 1.169821084237149394e-01 3.451037504519836180e-02 -1.287213026504454350e+00 -1.245223312368893609e+00 -4.909110106150840758e-02 -3.832064708313361878e-01 -3.868533235524671682e-02 3.783172610636382355e-02 6.646178253802271785e-01 -9.410443251238946871e-01 -6.837365484726767306e-01 1.340624609314826909e-01 5.300601699802658384e-01 -6.641180029260618234e-01 5.001880650344192603e-01 -9.295000719387010168e-02 6.096656375568106911e-01 1.294068615968374081e+00 1.915584982206965381e-01 -9.028685854148182921e-01 -1.292976925566941437e+00 -3.057663863355420397e-01 -4.521485451650587573e-01 -5.999247561275402596e-01 -3.109769839981507134e-01 4.565142783295261797e-01 -9.136697897869781038e-01 -4.909315794403583677e-01 3.661759977248585929e-01 -1.985140007533861439e+00 -8.994788430096158915e-01 1.039491865092949663e-01 4.931818089253653392e-01 6.529187917848445766e-01 -3.209734330814540404e-01 3.021200478350428154e-01 -2.063927350085121432e-02 1.249086651976036411e+00 3.790474543608753771e-02 -4.804481634186862360e-01 -2.930332550494947896e-01 7.976451601797812652e-01 1.392460620109188696e+00 2.874611602826904755e-01 6.401656058941549432e-01 2.638219236155845970e-01 -8.568072723162124538e-01 -1.557546011760614357e+00 -1.696506424210536546e-01 3.814982298923066395e-01 -4.604933175788369359e-01 7.312716179021852003e-01 6.043162003236004498e-01 -2.111808489999870364e+00 -4.615515836391989590e-01 4.387834367224591192e-01 1.613423796721373538e-01 -8.616383751525104329e-02 -4.871875390198062705e-01 8.814507818773353875e-01 4.123843779241757046e-01 9.474350591366154095e-01 -5.536238162144889730e-01 2.517846356885664605e+00 -7.737446994316919957e-01 7.716909022280543651e-02 -3.722926521407996514e-01 1.194823519799308453e+00 -5.196317755662025473e-01 8.232384352479444889e-01 2.741865546712977109e-01 -1.125964749207946980e+00 -3.563641538483919846e-01 -8.075701325952564513e-01 -2.413599436630524231e+00 3.551264247875117186e-01 -5.924325615213813512e-01 -8.240925557174592075e-01 4.391027677348424141e-01 6.780626380207646076e-01 -2.119198354700289499e+00 1.449680520919095494e-01 -2.009533091647269787e-01
-2.006591749633047234e-02 -6.148392113339257170e-01 1.322745157945152961e-01 9.420100314705224243e-01 -2.981075842446613278e-01 -1.716693183555353386e+00 6.110396350851330372e-01 2.417299768297368479e-01 8.304385525352085962e-01 1.285155629756394025e-01 -3.679695992887763722e-01 -8.346078534183065667e-01 2.783517417893407453e-01 -3.826881364344241615e-02 9.291966817659053079e-01 1.336305670227858400e+00 5.633801242627149014e-02 4.188892689171688777e-01 -6.195155337600347645e-01 -3.485289740807842596e-01 4.702712228936010153e-01 -4.453670034721264326e-01 -2.235414788603168890e-01 6.111795030969982001e-01 -7.701317852722633361e-01 9.601697330845583300e-01 2.263491235102570442e-01 -1.775716970341815193e-01 2.897160177533841807e-01 -2.226282230181385879e-01 1.740646094807892563e+00 -7.427114842991117127e-01 -4.422883645491975657e-01 -5.270674059028572778e-01 2.394566074162962632e-01 -1.027412822450624735e-02 1.041815113907680335e+00 5.083070945908121363e-01 -1.950490278697429927e-02 -1.526721055983936435e-03 -2.194621665877939942e-01 -1.129336493891034549e-01 8.168708411636572686e-01 7.283292474466984689e-01 8.323884771712110053e-01 1.192189681722936323e-01 1.175606066345542544e-01 -1.368418234466707017e-01 2.886954440653372700e+00 -1.026219830584716164e-01 5.523500917093787654e-02 1.488391564305934889e+00 -6.430313574754950023e-01 5.652416029500378913e-02 3.591732383161013509e+00 -4.384625630481802094e-01 -4.333851485292224831e-02 7.118356206798797867e-03 -5.425850419104110145e-01 -3.951045078112473963e-01 -1.357892138132590631e-01 -1.527703217390783630e+00 4.376279829626760209e-01 -1.268553502436253311e+00 8.297001317078617211e-02 -5.685578118048848495e-01 -7.231988682026596615e-01 1.051750884956424714e-01 -7.146838887597367629e-01 -3.157551221093675697e-01 1.634182883629447802e-01 -8.759594197497325152e-02 1.754206607090597947e+00 -2.215846122457844292e+00 -2.691338227426691154e-01 1.129655310682785851e-01 8.561619254232316623e-02 -6.903432551507775461e-01 7.600844283464062157e-01 -9.618959717457029046e-02 6.820859002444151775e-01 1.219839325097896165e-01 6.169876251338248657e-02 1.656885724525941628e-01 4.635282477480579533e-01 -1.060271520826297831e+00 3.608054774457423175e-01 5.967561285940364835e-01 -8.521767155263386406e-02 -8.272580979271718649e-01 8.829934437729068941e-01 3.163058524060865517e-01 -6.039469899099271233e-01 1.026750506276792985e+00 -4.842523676531655941e-01 -1.458057175012048567e-01 1.566557728333911326e-01 -1.276712126981299211e-01 9.265067936406604643e-01 -6.492909652270922871e-01 -7.834531849611552357e-01 3.484909217540267945e-01 -4.343914783057669649e-01 -4.185745658904723165e-01 1.299458676631501053e+00 -2.643196891872223037e-02 1.221662751458461704e+00 -3.971721889719450616e-01 -3.086218535042448696e-01 5.305373667266294335e-01 1.619265343099271226e-01 -8.246304304983819167e-01 -1.007744397502719824e+00 3.977290899162463922e-01 5.248809397762006501e-01 5.662854708327080128e-02 -1.225675729269474906e-01 8.296847050889060160e-01 -6.106390572129162253e-01 -1.091399352555139979e+00 -4.626509873501096770e-01 4.302273196289876922e-01 -3.900708020459975334e-01 7.083152662341856143e-01 1.086548195114199217e-03 3.887456554777016238e-01 5.667205014872591651e-01 -1.368253683864512626e-01 -8.589716269556992856e-01 -1.671081299288990962e+00 -3.145153361659599467e-01 -5.273836515914493983e-01 -3.868044725924407734e-01 -2.907033213665499716e-01 5.047671997611073991e-01 -4.989107409848860808e-01 -2.381772264842356712e-01 4.485376878881577323e-01 -2.788742413733708236e+00 -8.427541366681877699e-01 4.667184725480997831e-01 1.121818588253282512e+00 6.274489296683272155e-01 -2.444553461785798354e-01 1.555789948302822023e-01 9.945078442180844969e-02 8.280489692589684259e-01 -5.917851577458731471e-01 -9.887434309349656114e-02 -2.618416599623025753e-01 7.422918802635162239e-01 1.280673682729126961e+00 4.253905603657390788e-01 2.791318144878680574e-01 2.522180208370956578e-01 -2.729647664500050031e-01 -2.597182372851115861e+00 -3.084506180338364434e-01 2.346440165227450247e-01 -4.918211811334712719e-02 1.797407825034814444e+00 3.556704702160166098e-01 -3.406176896596616821e+00 -1.559307217424725223e-01 -7.398555029097769742e-02 2.419022407414090359e-01 -1.176783631592495383e-01 -1.336013078688331746e+00 1.479428184472032504e-01 6.761317395481409864e-01 5.780960903052034805e-01 -5.079265713232378188e-01 2.241214683109886252e+00 -8.201340852934226877e-01 -3.033685755291919972e-01 -5.144659150985654295e-01 1.716039094911631535e+00 4.527234438314751142e-01 9.714460773205543243e-01 -2.986593429826440993e-02 -2.694743910671481224e+00 -6.046514721755713584e-02 -7.944657340130084622e-01 -8.703281896102647019e-01 6.815490539047562857e-01 -3.307677934564376421e-01 -1.185110406284158646e+00 1.032215128931538883e+00 3.943645443220049063e-01 -1.374445928713336595e+00 2.214403733585484924e-01 -2.912967319757131524e-01
-1.885096840944153751e-01 -6.018556546001639918e-01 4.185241722685502722e-03 6.754637669473585460e-01 -2.723225048808153859e-01 -1.920769354617349434e+00 3.834759224424293955e-01 2.881553581356977034e-01 9.619463653676247894e-01 2.888541839743915540e-01 -5.312876146285090417e-01 -5.082849831036423405e-01 1.612858154026330926e-01 -6.446835483656519761e-02 1.440769077369010276e+00 1.059768613048341690e+00 -1.165686750357017819e-02 4.371651843940045912e-01 -9.998367126260203630e-01 -3.892249091065924649e-01 5.246022321937340305e-01 -4.709463945832294551e-01 -2.756130027040694652e-01 4.206756713922407132e-01 -7.432688994640448410e-01 6.957420575646460215e-01 1.844550544122215696e-01 -8.518938941788170571e-02 2.853795951649326645e-01 -2.623450819608907914e-01 1.918298524481275580e+00 -6.763338282564609338e-01 -2.826017753116402131e-01 -5.360734660492036951e-01 3.503559999857728258e-01 -2.622628066597936305e-02 1.037087369418385752e+00 3.369266139641909352e-01 1.387197571942130614e-01 -3.368386822361433275e-01 -2.779784176106124272e-01 -2.613819467174223199e-01 9.242935880411471405e-01 6.497614771052416804e-01 1.032157536220770888e+00 1.243287785910583004e-01 -6.493063918460479853e-03 -1.646261926271772869e-01 2.335356653728400733e+00 -4.933520159545100592e-01 3.458493703681765619e-02 1.786940864073361501e+00 -7.213533303549241049e-01 3.338063231700816313e-02 2.870751862764184814e+00 -1.510209431495002919e-01 -9.485108086984607445e-02 1.444096084857126316e-01 -3.738774801281834481e-01 -6.286182673851704594e-01 -1.121366074097248366e-01 -1.933889694039184981e+00 6.304535208202685093e-01 -1.363365502538078200e+00 5.032677323986119167e-02 -4.689990410503863116e-01 -6.435841446547413414e-01 1.659251139432484923e-01 -1.016667668127337443e+00 -2.841948308291337155e-01 3.403112141630748599e-02 9.869950807866512132e-03 2.371510992133647022e+00 -1.424843664400394116e+00 -2.197480732591065578e-01 1.272798907972866045e-01 1.762923161021208995e-01 -8.154407935864622647e-01 8.826725700986279843e-01 -1.628696149487531830e-01 6.374536062817401927e-01 5.643571434632435949e-03 9.461248249666434629e-02 3.142638822769817097e-01 7.285724738055670002e-01 -1.128494714716684166e+00 2.345416866170054737e-01 1.152877514417455646e-01 -2.201800185898666051e-01 -6.940441010382535358e-01 7.912318004592586718e-01 1.989391069497424558e-01 -7.785500912363971793e-01 4.722602282976244847e-01 -9.182653795738856539e-01 -1.435534311336704449e-01 -1.270587759255880321e-02 -6.332010016562815424e-02 1.153447785098185241e+00 -4.981471233465781245e-01 -5.967422446369762268e-01 1.773886344892403599e-01 -3.599750111252929541e-01 -3.188111353244947321e-01 1.457310012433960189e+00 -1.807536943041136712e-01 1.052331954270423253e+00 -5.087040729186058652e-01 1.458473693723852938e-01 6.852406438208588080e-01 2.580503112436196567e-01 -3.789173565410155486e-01 -8.372308928614098367e-01 6.804599346064827969e-01 9.779026315741529141e-01 1.182589182526162935e-01 -1.714092769820051987e-01 8.659269752221993022e-01 -4.590735544142792168e-01 -1.274674784837881214e+00 -7.079758806171598806e-01 3.654648305910001560e-01 -2.576836719331055403e-01 8.378525856053252729e-01 7.105500691002369744e-03 2.250867118590477167e-01 2.175739484276144886e-01 -2.308089590503542843e-01 -7.033036719561056582e-01 -1.752836209106698462e+00 -2.474830772589548533e-01 -5.273301726457362282e-01 -3.108258031323847259e-01 -2.760372347253516323e-01 5.079383983977705519e-01 -3.476321732988253421e-01 -1.697755980345949656e-01 4.087539802632640384e-01 -2.675829847390510885e+00 -7.582142079083417086e-01 6.270673779594891917e-01 1.348791975610614147e+00 5.805329818795745833e-01 -1.731663688810611279e-01 6.493783827345081527e-02 1.911234675661453442e-01 4.734691610031207532e-01 -7.988648915185464494e-01 1.723384736637711134e-01 -2.153987951548586299e-01 6.529445028164375664e-01 1.071536552208393056e+00 4.848267520989500423e-01 5.354116640960035478e-02 3.213585843347151472e-01 -3.710204702975849339e-02 -2.152002031468354115e+00 -1.927052102297380221e-01 2.667622371885438048e-01 6.803961712481325363e-02 2.198175958885336456e+00 2.307092002477740267e-01 -2.702571891350243227e+00 -7.292008514176964717e-02 3.096276690601575121e-02 2.703170444165724495e-01 -1.359362809139702255e-01 -1.857178774399364185e+00 -2.291973915901139025e-01 7.295628627425239099e-01 3.367070417543878702e-01 -5.536392428334446780e-01 1.413263929991602330e+00 -7.320959135750523261e-01 -4.209564358572347453e-01 -5.873356066184131086e-01 1.753223417242486981e+00 7.154511059424676356e-01 8.865312817200841078e-01 -1.117864231594300900e-01 -3.171187838029895900e+00 2.881949531243506793e-02 -7.537620856777222933e-01 -2.699144096618282807e-01 7.617484463110959503e-01 -2.716833286354169430e-01 -1.167957548667299061e+00 1.422707591895659318e+00 1.799561381041032138e-01 -9.697157248943548691e-01 2.496659438411885368e-01 -4.083318051245093394e-01
4.646230234732818820e-01 6.667657249594944879e-01 5.727559090433667066e-01 1.678626972840863152e-01 -1.457739386661560665e+00 -6.521109511721969731e-01 2.568814877474083214e-01 3.123478962026819336e-02 5.228698228850072599e-02 2.096570075795414489e-01 1.591512855597939646e-01 -3.564050858106877939e+00 -6.203259454758416336e-01 -5.880961389329298905e-01 3.317489264220210843e-01 1.330494462867240490e-02 -1.026862606374537717e-01 -1.202848961200703393e+00 -6.471698051206814517e-01 2.461898123698341156e-01 -2.422339130489568615e-01 2.449592823977998768e-01 -2.534686054137722966e+00 6.438273710136098726e-01 -2.876195402373025178e-01 -1.260109485440526811e+00 -9.318078941344761779e-01 1.743866144404581930e-01 3.662197064785664424e-01 5.205455456290127708e-02 7.751721759057274008e-01 -1.323177103275912925e-01 6.155822601469591593e-01 2.183535069055099129e-02 -4.144366324659176648e-01 -2.878637950374346999e-01 -8.457525571725469371e-01 3.620833157159073640e-02 -1.720247990783382031e-01 -3.179858112103639556e-01 -1.055381282617336158e-01 -1.463007577034937556e+00 -8.997524083857638688e-02 -4.241286629351616044e-01 8.827769568868950589e-01 -5.116130190330218097e-01 -2.754489663225070384e-01 5.327325746040276894e-02 -2.026947687565745060e+00 -2.916145203262008878e-01 -4.427213383212213471e-01 -1.164317895035013928e+00 3.573684267424089289e-01 -6.697368917703652169e-01 -2.357346784829141284e-01 3.537935649097379565e-01 -1.680716251268098649e+00 3.041414491388733654e-01 1.601797268235083047e-02 4.535184289283263337e-01 3.019668100867494154e-01 -5.704701983347616467e-01 -7.461295088390663688e-01 -1.607143620144502183e+00 -3.110911409784230530e-01 8.063169769154204802e-01 8.569692518152474126e-01 2.536331560159665877e-01 -1.300816219099603988e+00 6.259607751597325020e-02 -2.762598922589457745e-02 -2.594199378965712732e+00 -7.123179596325618368e-01 7.191272692396144528e-02 -7.852370163330677499e-01 -9.795285972120852669e-02 -1.796038969712810407e-01 -1.057974497263791891e+00 1.409473609714183284e-01 -7.400149113056526951e-02 -6.968039231694311830e-01 2.046963211440153418e-01 2.670106057537308675e-01 7.311194085951554511e-01 4.074817984200495014e-01 -7.840409391433680319e-01 3.116871226907454440e-01 1.727092267393401104e-01 1.203723650495492625e-01 -2.037267581426486895e+00 -1.042694431188156301e+00 -1.043064670043093223e+00 -1.060257122648605943e+00 -4.157638359167409869e-01 -1.167656215377030626e-01 -1.258575565295696752e-01 -2.864034084429603055e-01 -5.811757576693961092e-01 1.814016123002537006e-01 2.397754242080477327e-01 3.131552225946977047e-02 1.108937875645892301e+00 -2.625348293740460970e-01 2.456776486205043686e-01 3.996234787240082187e-01 2.195259299461442548e-02 -2.016048267052900356e-01 -4.350147137115779050e-01 4.868579235947858574e-01 2.214388306966529330e-01 2.250389921844113683e+00 -9.662771315291258933e-02 2.177559825312918862e-01 9.062963801467782687e-01 4.987940129014544225e-04 1.763086683182139236e+00 1.262989635199558869e+00 -1.562464532104328452e-01 1.032550915004141867e+00 -7.555474597115304780e-01 -1.703412407296378550e-01 1.604632166578511709e+00 -3.384620767709164424e-01 -6.165505375967462835e-03 2.151159738073371852e-01 1.773593239132245092e-01 1.751024095600034122e-02 4.127309626300474377e-01 -3.939655091116837093e-01 5.604140996581628009e-01 2.142644244409817045e-01 1.764614946900018855e-01 5.584235515922437720e-01 1.367425788647222418e-01 2.968112340317494158e-01 2.555429714426841192e-01 1.833350818760366707e-01 7.222275054290814289e-01 -9.088402296125756008e-01 -2.365754292160006100e-01 1.064088066355941775e+00 1.747871923126749216e-01 2.488776436125515051e-02 4.714523876849769368e-01 1.736534900856194108e+00 -6.739529867309621003e-02 2.328242925507288508e+00 1.188271834728816367e+00 7.420203717698957702e-01 4.138236814727439539e-01 -1.414081026575623456e-01 -1.970899695575840938e-01 6.805175273172507922e-01 -5.909675469412202231e-01 -1.741989239098303277e-01 6.447956484633968754e-01 -9.973463421059361456e-02 7.459886123859374996e-01 2.684427102134531173e-01 1.118232927787342401e+00 3.734928430955542500e-01 6.756812822746339764e-01 2.594459060384800564e-01 -1.300592533124745875e-01 2.430366114552859058e-01 8.299181612557691157e-01 1.113177624755554707e+00 1.085220991663375933e+00 2.652730542386854684e-01 -4.934805711124743421e-01 1.470305910462886279e-01 -7.416470475911673965e-01 -5.775911256447197051e-01 -6.038194631932265466e-01 -5.360750087110993656e-01 -6.386784798268241303e-01 1.939449447510824376e+00 3.377447389894757124e-01 5.696937251806573066e-01 1.308600491024657808e+00 -2.455043562675684743e-01 4.770131695978803710e-01 -1.248235102609680958e+00 9.653546197155742359e-01 8.316361723868039846e-01 -7.691043724498128342e-02 1.313590488036199710e+00 2.898923954301112493e-01 1.882327762841602636e+00 -2.452863267196610242e-01 -4.009280564670298364e-01 -5.767046092753980169e-01
7.874157691502467471e-02 1.823380080708656148e-01 5.719454973275598375e-01 7.901534797942540989e-01 2.368058000590725631e-01 -1.427337634464901361e-01 -3.904322991501931600e-02 -5.353396732075435538e-02 3.838955264780248289e-01 3.707962701020952601e-01 3.476167466798696370e-01 -1.308536727666307353e+00 1.570172699375867176e-01 -9.967914980441622275e-01 2.557784844920746870e-01 -2.114968890003263990e-01 -1.950032622335076682e-01 -1.399564578138295379e-01 -1.727673336707399865e-01 1.926990395821557289e-01 -2.949055323700867093e-01 2.215293335278597786e-01 -1.146694011319373097e+00 2.892799586575692805e-01 -1.882001232740373731e-01 -1.644938322365372185e+00 -8.697913432706058101e-01 1.237986171196135861e-02 -4.741458753546447524e-01 -8.006343247127670759e-01 3.512461158995174859e-01 -1.425183050017419795e-01 4.915928671729266619e-01 -1.741043073135686292e-01 -8.333752665637448320e-01 -2.382337907537399324e-01 -1.099287497047828799e+00 -2.447566794688481595e-01 3.707628457610245842e-01 -6.295654617890512894e-02 8.444685482547996391e-02 -1.022571949422321547e+00 8.913037634043506630e-02 -2.834625806493691336e-01 2.754787911191547978e-01 -6.966198321832262064e-02 -7.937252563031341190e-02 -9.607749707682541884e-02 -9.947464425912661001e-01 4.110911130350549669e-01 -4.234468063773189073e-01 -5.718225985965460501e-01 -5.296061131623360646e-02 -1.816980090724561903e+00 9.977165809608731784e-02 2.012433296010944506e-01 -2.299437314151913547e+00 -7.495588462329217938e-01 5.827585287742523823e-01 1.714488719706581954e-01 2.869438543270421693e-01 2.811110496998863173e-01 -1.321810819057068542e+00 -1.159063074398065663e+00 -4.988099537410420337e-01 5.486903834724512485e-01 7.080576416976253062e-01 1.073774954618867128e-01 -1.339263467302300725e+00 -6.334025761439695534e-01 -1.944108800656082492e-01 -3.040260066070214595e+00 -9.742064136723634082e-02 7.188804433363231612e-03 -4.903988468657543565e-01 -7.384773916163997476e-02 2.273081449886706906e-01 1.760521750670435703e-01 1.936544615161463478e-01 -9.419133579917331189e-02 -1.469817400862621914e-01 -8.403496409936236922e-02 4.699822308984972358e-02 6.502391880722369066e-01 2.205451152384851621e-01 -7.376788069751255561e-01 3.874858149296515897e-02 1.531575298748668046e-01 2.722474286685642730e-01 -8.149265729546051329e-01 -1.631168522285501243e+00 -6.873556332796875168e-01 -8.713674295072481035e-01 9.140271731261188914e-02 -6.504633882677265944e-02 2.771793187487064380e-01 -2.926429615899152001e-02 3.839073535525575065e-01 1.990686905489704728e-01 3.400319923599763872e-01 3.570609228045584227e-01 1.507174501325781790e+00 -4.139717770147188225e-01 -1.541216935595990101e-01 -4.075728154718882279e-01 2.697832834007047320e-01 -2.420050848677804678e-01 -2.007177961153364110e-01 -1.065634842016568162e-01 3.617593567178373215e-02 2.530045212935212007e+00 -2.294102789317027935e-01 5.665729201659160941e-01 9.898469484109311267e-01 -4.640614945432937621e-01 6.163793021263378469e-01 7.428523807522405820e-01 -2.922912346777248871e-01 1.054480882290954158e+00 -8.314844773004060885e-01 -4.487099517998298648e-01 2.055823232927052602e-01 2.627199488015146689e-01 -2.899381610663465114e-01 4.724520325933072584e-01 -3.651218454295513949e-01 2.151108316010186261e-01 4.919363665550072762e-01 7.776126670245215866e-01 4.649958334313783470e-01 3.707134805803662392e-01 -7.964763366835699021e-02 6.177666693910885964e-01 3.468212473623866199e-01 -1.542229950240748548e-01 5.592648165459620513e-01 4.191823746773275516e-01 7.566756597778250271e-01 -1.019772532302490875e+00 -4.898146922279645321e-01 3.437189542903922868e-01 3.231537285605284859e-01 4.417360915905829688e-02 -2.239893650306645084e-02 4.418949857658268643e-01 4.385021580368332339e-01 3.720401698105577637e-01 7.180021544971110226e-01 5.712482141507615463e-01 -2.279025840390975360e-02 -3.318024053677341989e-01 -1.404331403395611411e-01 1.716248896929428946e+00 5.671519325973873871e-01 -4.536351570117578419e-02 7.020669713364890985e-01 8.067916025586248374e-02 7.417586334682804150e-01 8.081630289837878900e-01 8.336997397824467138e-01 -2.234319498657313385e-01 8.724663189975268018e-01 1.088090857009770818e-01 -6.647278685954445543e-02 1.791621814485157560e-01 1.399166057148606201e+00 8.962881039889419865e-01 1.659867689970081717e+00 5.910349098439935528e-02 -2.886788347389282472e-01 -3.324708921891485480e-01 -5.550708330725350192e-01 -1.281338055785486096e+00 -4.501024612708990902e-01 -5.352358006399083878e-01 -1.280976044460658825e+00 4.300077474191845717e-01 1.678390431350208489e-01 7.553494847682653557e-01 1.238289561368931313e+00 -3.901211956679195847e-01 2.991668787462871126e-01 -1.106006818044306339e+00 5.763364273029881746e-01 5.479082538913965239e-01 3.023020819387202685e-01 1.728612303581170906e+00 1.450215310376226641e-01 9.046734998326370070e-01 -1.768466459432629090e-01 -3.045893353092209432e-01 -3.444789723842771600e-01
-2.856608738505585499e-01 -1.996893548516220918e-01 3.009260275278705099e-01 -5.223453178405128641e-03 -1.502405104965306437e+00 -1.641860197663075338e-01 2.275683406283903754e-01 -5.664978439536649812e-01 6.570253577508559095e-01 -8.462888892915738925e-02 -9.639744515396695412e-01 -1.828851388231616415e+00 3.492082595354675800e-01 4.646523340492977328e-01 2.927550616876600231e-01 -8.977212368899280259e-02 -1.897263301093894128e-01 -1.773171578214121913e-01 7.461187102057972864e-02 -2.078232453842755678e+00 1.700990428120331341e-02 -2.688036930970168492e-01 -1.023757227978752127e+00 6.339533064406884799e-01 1.039848219990826772e+00 2.203860667970517273e+00 -2.084696721405832343e-01 3.583886404760135980e-01 2.551922729717575819e-02 -8.150808391441624057e-01 2.363887671266364510e-01 -2.497914136753617009e-01 1.197784402197542286e-01 1.921693923313428365e-01 1.960990663999953310e-01 1.889478000727576879e-01 -2.031746394502235820e+00 -2.669375864240071117e-01 1.658366679945690314e-01 -1.385794778058424326e+00 -4.686010342813289320e-01 -2.096765479635520346e-01 -1.218816026040500516e-01 -2.822104534107969243e-01 9.480742353820138524e-01 -5.949856669585522617e-01 -2.650421691749816344e-01 -2.091232465636737314e-02 -8.589253470988320593e-01 1.654139786351824515e-01 -1.106609484624842876e+00 4.239322306537922080e-01 3.278706744165543197e-01 4.413298572914157725e-01 2.710662638771883792e-02 7.843458719780592447e-02 -1.852851093561654006e+00 4.395881920113154928e-01 -1.128704002513849947e+00 -3.885965314944630489e-01 2.347334909126881919e-01 -8.364806449595303395e-01 -1.667843766190818255e-01 -6.293592593156766002e-01 -1.364654139441512370e+00 -1.170638695041802402e-01 6.106714531127233059e-01 -1.055096918607919321e+00 -1.970831304231803749e+00 -2.955318530996887683e-01 3.014819000309080788e-01 -3.765887084096503745e+00 -8.651304474634524677e-01 -9.094644934596501917e-01 1.169291436986336502e-01 5.794716304954213859e-01 3.323572494295081170e-01 7.918668629396022896e-01 8.129601932583834234e-01 2.698269921544126093e-02 -3.160883370788110103e-01 -7.036235171891208617e-02 8.455093308136784058e-01 6.890787866170408060e-01 1.062153568338895238e-01 1.286266346321205400e-01 -1.381176048343083218e-01 -4.044288705287134023e-01 4.741427900308536336e-01 -1.570866897228874459e-01 -2.006486848624148056e+00 1.716946694326859091e-01 -1.201308870408291263e+00 -2.682601618891438111e-01 -2.180956252586335520e+00 -1.745038567445216515e-01 -1.024836577085020406e-01 -7.610928150054781238e-02 7.404098327509190947e-01 9.039124532974883441e-02 -2.623478073302396130e+00 1.345811038607738208e+00 -2.256914353221117341e-03 -1.193120421066597714e-01 -2.710328395361176756e-01 7.502571578509837913e-01 2.530839683811431443e-02 -3.403832050515348540e-01 1.848911135080364421e-01 6.695980521997637602e-01 3.780202472266774638e+00 7.307455701957954464e-01 -3.322523484206092448e-01 2.539381916947843099e+00 -1.103439828650075505e+00 -7.541405520627691983e-02 3.226729322697420854e-01 4.850488954119123314e-02 6.749418330060235061e-01 -1.652854234772181408e-01 -8.941628301174764371e-02 1.763237349827273759e+00 -1.379803079256024523e-01 1.387476793745229253e+00 1.992059874576763423e-01 -7.071562129299796551e-02 -6.049805733799600189e-03 -1.709788743131407662e-01 -3.735828317061292148e-01 9.735734080745472863e-01 9.539471492184546930e-01 -1.158035147354982974e-01 4.416003373437726309e-01 6.695306892969905832e-02 1.501786497545182231e-01 -3.069794328060930777e-01 -2.044782915961079195e-01 6.811834430355058201e-01 -2.731730258059071881e-01 2.976823237821154666e-03 3.100657850384997971e-01 -4.701519237070101581e-02 3.186659708401214264e+00 -3.689877561398536288e-01 7.623619115249016254e-01 1.281679498285039354e-01 1.371154402448818921e+00 1.529359007825363825e-01 6.030882414547256154e-02 9.294177966376039601e-02 -8.345050092919350515e-01 5.643653709933532658e-01 -2.159150726692432298e-01 1.913944618391340835e-01 4.244438801824900742e-01 1.039417817321962145e+00 -1.677999623669997054e-01 3.840199678709341636e-03 2.414219586712544052e-01 -3.724098944448630544e-01 2.005645583670429832e-01 8.760314106381925092e-02 4.020002064844520606e-01 -3.874081676142411279e-01 1.215111066387969396e+00 -1.913378975696297946e-01 -5.589424002097875821e-01 -5.971690477614176595e-01 6.684353993511348291e-01 1.503591411963000890e-01 -3.563677533928149010e-01 -5.477298193321420428e-01 6.390836856847274816e-02 -4.893153839944313077e-01 -7.961739749520378995e-01 -4.165130553773569444e-01 2.169476276980124019e-01 6.794644034632073559e-01 4.021030506108234648e-01 -4.262446808352538530e-01 1.045508246485678527e-01 1.541858682944547976e+00 -6.079990484889616353e-02 2.970534319493541298e-01 -4.442053790647610967e-01 1.273292559779448940e-01 1.586640100890461147e+00 2.635037753106545200e+00 -5.330585904846251166e-01 -5.681109540758009363e-02 1.482401922386062720e+00 -3.229804362075926472e-01