4.227839999999999598e+00 1.060490000000000066e+01 7.134209999999999718e-01 9.394980000000000331e+00 2.378460000000000019e+00 1.871329999999999938e+00 1.355560000000000098e+00 1.062410000000000032e+01 8.460560000000000302e-01 9.718159999999999243e+00 4.971700000000000230e+00 8.629630000000000578e+00 8.780749999999999389e+00 1.075499999999999901e+00 1.131029999999999980e+01 5.270599999999999952e+00 2.725260000000000016e+00 3.299529999999999852e+00 1.190530000000000044e+01 1.134230000000000071e+00 1.292300000000000004e+00 6.541430000000000078e+00 4.062200000000000255e-01 1.078599999999999959e+01 1.626209999999999878e-01 8.841079999999999828e+00 7.923350000000000115e+00 1.314810000000000034e+00 2.708260000000000112e+00 5.366909999999999847e+00 1.777249999999999996e+00 1.224949999999999939e+01 5.021810000000000329e+00 5.320820000000000327e+00 6.471770000000000023e-01 8.266360000000000596e+00 4.349520000000000053e+00 5.432970000000000077e+00 5.224890000000000256e+00 1.126479999999999926e+01 7.600329999999999586e+00 1.036999999999999922e+01 8.362500000000000488e-02 8.892160000000000508e+00 4.576609999999999623e+00 1.011979999999999968e+01 7.861679999999999779e+00 1.013589999999999991e+00 7.330140000000000100e+00 2.937899999999999956e+00 1.238949999999999996e+01 4.951550000000000118e+00 1.712180000000000035e+00 2.684739999999999904e-01 4.410009999999999764e+00 4.514569999999999972e+00 1.242270000000000074e+01 4.090609999999999857e+00 1.205829999999999913e+01 5.332279999999999909e+00 7.659080000000000332e+00 8.353389999999999205e+00 7.293149999999999800e+00 8.799810000000000132e-01 8.621499999999999997e-02 8.216590000000000060e+00 7.472769999999999690e+00 7.550480000000000302e+00 2.948420000000000041e+00 2.616260000000000030e+00 9.102619999999999933e+00 9.199749999999999872e+00 1.247840000000000060e+00 6.768589999999999662e+00 9.807169999999999277e+00 2.112670000000000103e-01 1.612540000000000084e+00 1.048119999999999941e+01 7.911579999999999835e+00 3.283420000000000005e+00 7.564009999999999678e+00 9.539809999999999235e+00 4.762809999999999988e+00 2.100089999999999790e+00 4.134400000000000297e+00 2.662469999999999892e+00 1.041789999999999949e+01 5.461070000000000313e+00 9.873939999999999273e+00 6.545420000000000016e+00 5.964500000000000135e+00 1.164109999999999978e+01 2.755869999999999820e+00 1.016750000000000043e+01 9.194279999999999120e+00 2.866429999999999811e+00 4.551660000000000039e+00 8.001129999999999853e+00 1.114990000000000059e+01 7.587839999999999918e+00 1.141699999999999982e+01 7.556189999999999962e+00 1.009379999999999988e+01 5.265959999999999752e+00 1.185149999999999970e+01 8.576810000000000267e-01 7.971659999999999968e+00 1.380169999999999897e+00 7.788920000000000066e+00 2.283720000000000194e+00 3.710059999999999913e+00 1.098680000000000057e+01 1.097749999999999915e+01 5.789690000000000225e+00 5.894989999999999952e+00 1.869259999999999922e+00 6.074629999999999974e+00 9.773740000000000094e+00 1.113359999999999950e+01 5.375259999999999483e-01 1.338219999999999965e+00 4.372429999999999595e+00 1.062279999999999980e+01 6.425270000000000259e+00 6.226029999999999731e+00 1.024399999999999977e+00 6.748160000000000380e+00 4.099899999999999878e+00 1.000810000000000066e+01 3.139100000000000001e+00 4.342959999999999710e+00 2.463880000000000070e+00 8.597550000000000026e+00 1.176539999999999964e+01 3.278109999999999857e+00 2.761790000000000078e-01 4.471569999999999823e+00 1.062899999999999956e+00 1.422690000000000010e+00 4.912620000000000431e+00 7.566379999999999661e+00 3.293140000000000178e+00 6.376829999999999998e+00 8.551460000000000505e+00 6.626280000000000392e+00 5.217240000000000322e+00 4.297659999999999592e+00 1.523229999999999862e-01 1.092919999999999980e+01 1.041559999999999953e+01 1.117530000000000001e+01 3.161979999999999791e+00 4.285919999999999952e+00 1.025270000000000081e+01 7.242099999999999760e+00 6.856069999999999887e+00 1.021019999999999983e-01 1.198910000000000053e+01 3.370159999999999823e+00 2.539320000000000022e+00 1.222520000000000051e+00 1.211589999999999945e+00 6.013770000000000060e+00 6.271919999999999717e+00 7.326670000000000016e+00 8.357480000000000686e+00 7.490380000000000038e+00 1.083510000000000062e+01 2.936760000000000037e+00 8.332240000000000535e+00 5.852310000000000123e+00 3.142319999999999780e+00 1.044030000000000058e+01 3.133480000000000043e+00 1.029659999999999975e+01 1.698479999999999990e+00 7.694309999999999761e+00 4.113730000000000331e+00 1.131300000000000061e+01 1.082080000000000020e+01 2.867659999999999876e+00 2.036029999999999784e+00 8.083489999999999398e+00 4.273230000000000084e-01 5.650100000000000122e+00 4.661450000000000315e+00 6.906789999999999985e+00 9.656810000000000116e+00 1.018860000000000099e+00 3.772320000000000118e+00 7.924800000000000288e+00 3.082380000000000120e+00
2.955090000000000217e+00 9.455560000000000187e+00 9.778069999999999595e+00 1.154260000000000019e+01 1.588989999999999903e+00 7.227660000000000196e-01 4.245630000000000237e+00 2.482670000000000154e+00 8.145279999999999632e+00 6.382590000000000430e+00 3.165099999999999802e+00 1.732299999999999951e+00 1.651280000000000081e+00 4.069930000000000270e+00 -4.269799999999999984e-02 8.466120000000000090e+00 5.558220000000000383e+00 2.552240000000000064e-01 7.581290000000000084e+00 7.950610000000000177e+00 3.798989999999999867e+00 3.628509999999999902e+00 3.255149999999999988e+00 2.578160000000000007e+00 6.963140000000000107e+00 6.633169999999999789e+00 5.763580000000000148e+00 1.129059999999999953e+01 5.832279999999999909e+00 8.964900000000000646e-02 1.079879999999999951e+00 8.521100000000000341e-01 3.365120000000000111e+00 4.792040000000000077e+00 8.644239999999999702e-01 3.868510000000000115e+00 6.858830000000000204e+00 5.016690000000000316e-01 4.320339999999999736e-01 8.578810000000000713e+00 5.383949999999999569e+00 2.449539999999999829e+00 6.485780000000000101e+00 1.145700000000000074e+01 7.735750000000000348e+00 1.128470000000000084e+00 9.597210000000000463e+00 2.655549999999999855e+00 1.185069999999999979e+01 8.169489999999999696e+00 1.478569999999999940e+00 1.808170000000000055e+00 1.091280000000000072e+01 1.026950000000000029e+00 1.159810000000000052e+01 7.506739999999999746e+00 8.099959999999999383e+00 2.200400000000000134e+00 1.102069999999999972e+01 6.740520000000000067e+00 3.807609999999999939e+00 6.023720000000000185e-01 1.665960000000000107e+00 4.971440000000000303e+00 2.717900000000000205e+00 5.802389999999999937e+00 4.890729999999999578e+00 8.966279999999999362e+00 7.904239999999999711e+00 6.625270000000000437e+00 1.609730000000000105e+00 9.610279999999999490e+00 8.696739999999999471e-01 1.357599999999999918e+00 8.650029999999999220e+00 9.462419999999999831e+00 6.014840000000000408e+00 8.197079999999999700e+00 7.092800000000000438e+00 7.090040000000000120e+00 8.871359999999999246e+00 3.613259999999999916e+00 1.081819999999999915e+01 4.329019999999999868e+00 9.404350000000000875e+00 1.060089999999999932e+01 5.333730000000000082e+00 9.744300000000000850e+00 8.053129999999999455e+00 5.576229999999999798e+00 4.585259999999999891e+00 5.627849999999999575e+00 1.203379999999999939e+01 1.190830000000000055e+01 1.055150000000000077e+01 5.214669999999999916e+00 6.800930000000000142e+00 7.511400000000000077e+00 5.783530000000000060e-01 3.913819999999999855e+00 6.842979999999999841e+00 9.872579999999999245e+00 7.293619999999999770e+00 1.118369999999999997e+01 3.269899999999999807e+00 4.560239999999999849e-01 7.359799999999999898e+00 4.708960000000000257e+00 9.043639999999999901e+00 8.019500000000000739e+00 1.041329999999999956e+01 2.290519999999999889e+00 8.302339999999999165e+00 7.348080000000000389e+00 5.606250000000000178e+00 1.037529999999999930e+01 1.064509999999999934e+01 3.491239999999999899e+00 5.065319999999999823e+00 6.077079999999999593e+00 2.269080000000000208e+00 2.028739999999999988e+00 5.340060000000000251e+00 2.424300000000000122e+00 3.577949999999999964e+00 9.667849999999999611e+00 4.830049999999999955e+00 2.459799999999999986e+00 1.148160000000000025e+01 1.375850000000000017e+00 7.485560000000000436e+00 1.090939999999999976e+01 4.526539999999999786e+00 9.826349999999999696e+00 1.243190000000000017e+00 2.785320000000000018e+00 1.714640000000000053e-01 1.041489999999999938e+01 4.506549999999999834e+00 7.603019999999999889e+00 5.327020000000000088e+00 5.506380000000000052e+00 4.805880000000000152e+00 3.434540000000000148e+00 9.318250000000000810e+00 1.370999999999999996e+00 1.088569999999999993e+01 2.495300000000000018e-01 5.374679999999999680e+00 7.120689999999999742e+00 1.041660000000000075e+01 1.096269999999999989e+01 2.730319999999999858e+00 2.157020000000000048e-01 5.155540000000000234e+00 2.627139999999999809e+00 6.768229999999999968e+00 4.029679999999999929e+00 7.394440000000000346e+00 1.137630000000000052e+01 1.124629999999999974e+01 1.146230000000000082e+01 9.508190000000000808e+00 2.926079999999999792e+00 2.115930000000000089e+00 9.540269999999999584e+00 5.107039999999999580e+00 5.575599999999999667e+00 7.963849999999999874e+00 9.192170000000000840e+00 7.408739999999999881e+00 7.835009999999999586e+00 2.435480000000000089e+00 4.056129999999999569e+00 8.478550000000000253e+00 9.795049999999999812e+00 4.357619999999999827e-01 1.139639999999999986e+01 2.321390000000000065e+00 6.314350000000000129e+00 1.039550000000000018e+01 3.910930000000000017e+00 9.736179999999999168e+00 8.530499999999999972e+00 8.063150000000000039e-01 7.099730000000000096e+00 2.223149999999999959e+00 6.199449999999999683e+00 2.077820000000000000e+00 1.150079999999999991e+01 1.069780000000000086e+01 8.512109999999999843e+00
7.101899999999999658e+00 6.798379999999999868e+00 1.211270000000000024e+01 4.018150000000000333e+00 9.491479999999999251e+00 9.928150000000000475e+00 5.139940000000000175e+00 4.288859999999999673e+00 3.392189999999999817e+00 4.150129999999999875e+00 4.249179999999999957e+00 6.091129999999999711e+00 7.309199999999999697e+00 9.827540000000000830e+00 4.901419999999999888e+00 6.014940000000000175e+00 4.309389999999999610e+00 4.167839999999999878e-01 5.219619999999999926e+00 8.666499999999999204e+00 1.212540000000000007e-01 8.319839999999999236e+00 3.342490000000000183e+00 1.009130000000000038e+01 2.142110000000000181e+00 1.117960000000000065e+01 5.666710000000000136e+00 1.095509999999999984e+01 6.707880000000000287e+00 5.710639999999999716e+00 1.151550000000000074e+00 9.894560000000000244e+00 1.013310000000000066e+01 1.102860000000000085e+01 7.799540000000000362e+00 9.153000000000000469e+00 7.513230000000000075e+00 1.527260000000000062e+00 5.308550000000000324e+00 4.462519999999999598e+00 9.069850000000000634e+00 6.996129999999999960e+00 9.113749999999999574e+00 8.429209999999999425e+00 1.183249999999999957e+01 9.345940000000000580e+00 1.625520000000000076e+00 7.404720000000000191e+00 7.003160000000000274e+00 9.120169999999999888e+00 9.721009999999999707e+00 2.305139999999999967e-01 4.727610000000000312e+00 8.037630000000000052e+00 9.627829999999999444e+00 1.193529999999999980e+01 5.355839999999999712e+00 5.568900000000000183e+00 1.127609999999999957e+01 7.541240000000000165e+00 1.601469999999999949e+00 2.360939999999999817e+00 2.955849999999999866e+00 1.057080000000000020e+01 1.089220000000000077e+01 7.576679999999999637e+00 2.926050000000000040e-01 1.097669999999999924e+01 2.541470000000000118e-01 1.035500000000000043e+01 6.920810000000000350e+00 2.854589999999999961e+00 1.664260000000000073e+00 5.401489999999999903e-01 1.075459999999999994e+01 8.042310000000000514e+00 6.639770000000000394e+00 5.615820000000000256e+00 2.856259999999999799e+00 8.939909999999999357e+00 3.197459999999999747e-01 2.045920000000000183e+00 9.168340000000000600e+00 2.492449999999999832e+00 9.146000000000000796e+00 4.893580000000000041e+00 7.700370000000000381e+00 1.117479999999999940e+01 1.868160000000000043e+00 1.205570000000000030e+00 1.013480000000000025e+01 3.089240000000000208e+00 3.388879999999999892e+00 7.961459999999999759e+00 1.194120000000000026e+01 7.440190000000000303e+00 6.418980000000000352e+00 2.301019999999999843e+00 8.344519999999999271e+00 4.092019999999999769e+00 1.035940000000000083e+01 3.900999999999999801e+00 2.707190000000000207e+00 6.964959999999999596e+00 6.689009999999999678e+00 8.979210000000000136e+00 5.264550000000000063e-01 2.744709999999999983e+00 5.317980000000000373e+00 1.893179999999999863e-01 1.171959999999999980e+01 2.813629999999999742e-01 2.700169999999999959e+00 1.057579999999999920e+01 4.888230000000000075e-01 4.947809999999999597e+00 1.665720000000000089e+00 1.043960000000000043e+01 9.551510000000000389e+00 1.926909999999999901e+00 9.575240000000000418e-01 9.063380000000000436e+00 6.463870000000000005e+00 1.497339999999999893e+00 5.775170000000000137e+00 4.423910000000000231e+00 3.384539999999999882e+00 2.502540000000000209e+00 2.354330000000000034e-01 9.128220000000000667e+00 1.149920000000000009e+01 1.081199999999999939e+01 7.575940000000000119e+00 3.872679999999999900e+00 5.580770000000000231e+00 2.949619999999999909e+00 1.224390000000000001e+01 8.970510000000000872e+00 3.877450000000000063e+00 4.997180000000000177e+00 1.099990000000000023e+01 3.460669999999999913e+00 6.215189999999999770e+00 2.360749999999999904e+00 5.631840000000000401e+00 6.965180000000000149e+00 8.289270000000000138e+00 7.428410000000000402e+00 5.672270000000000145e+00 2.470359999999999889e+00 2.316320000000000157e+00 3.535920000000000174e-01 1.854619999999999935e+00 7.707790000000000141e+00 9.510170000000000456e+00 2.273519999999999985e+00 8.829650000000000887e+00 9.011150000000000659e+00 7.212469999999999715e+00 7.564879999999999605e+00 1.321830000000000060e+00 2.029110000000000080e-01 5.572140000000000093e+00 6.716490000000000293e+00 4.782639999999999780e+00 4.358200000000000268e-02 1.203209999999999980e+01 4.218390000000000306e+00 9.654249999999999332e+00 5.811499999999999666e+00 1.096279999999999966e+01 9.510510000000000019e+00 3.934439999999999937e+00 7.437030000000000030e-01 1.108389999999999986e+01 3.127679999999999794e+00 5.987269999999999648e+00 1.660700000000000065e+00 6.894849999999999923e+00 1.044190000000000040e+01 3.686529999999999863e+00 1.865459999999999896e+00 4.850340000000000096e+00 6.168160000000000309e+00 1.219979999999999976e+01 2.258509999999999796e+00 3.019270000000000120e+00 3.371309999999999807e+00 8.446089999999999876e+00 4.358339999999999992e-01 1.051369999999999916e+00 8.378389999999999560e+00
2.610069999999999890e+00 4.261669999999999625e+00 7.943410000000000082e+00 1.632910000000000084e+00 9.512249999999999872e+00 3.978800000000000114e+00 5.082779999999999632e+00 2.135850000000000026e+00 5.922380000000000422e+00 8.921419999999999462e+00 2.035309999999999953e+00 2.950429999999999886e+00 5.175900000000000389e+00 7.881899999999999906e+00 7.560870000000000424e+00 1.014530000000000065e+01 7.799170000000000158e+00 2.667539999999999800e+00 9.696440000000000836e+00 1.064739999999999931e+01 6.648719999999999963e+00 2.104200000000000070e+00 6.350859999999999950e+00 2.117600000000000038e-01 6.758549999999999613e+00 4.993789999999999729e+00 1.528250000000000108e+00 4.825630000000000308e+00 1.137160000000000082e+01 7.193130000000000024e+00 3.922449999999999992e+00 9.053150000000000475e+00 1.187969999999999970e+01 4.348589999999999733e+00 9.237470000000000070e+00 5.558550000000000324e+00 1.031199999999999939e+01 4.666350000000000220e-01 4.984230000000000160e+00 1.463589999999999891e-01 8.153629999999999711e+00 7.996179999999999843e+00 1.215370000000000061e+01 1.054429999999999978e+01 8.222590000000000288e+00 1.039160000000000039e+01 9.164339999999999709e-01 1.140309999999999935e+00 1.232210000000000072e+01 6.144999999999999574e+00 4.069250000000000256e+00 4.554420000000000357e+00 1.556119999999999948e+00 2.087190000000000101e+00 3.524530000000000163e-01 6.115500000000000380e-01 2.919509999999999827e+00 2.221249999999999947e+00 1.012199999999999989e+01 7.276839999999999975e+00 3.014130000000000198e+00 3.336930000000000174e+00 5.640659999999999563e+00 3.679899999999999949e+00 8.061510000000000176e+00 2.707149999999999945e+00 1.097160000000000046e+01 2.744870000000000143e+00 6.555600000000000094e+00 4.728189999999999671e+00 3.962889999999999802e+00 3.732800000000000007e-02 9.543549999999999756e+00 5.709929999999999950e+00 8.977240000000000109e+00 6.330829999999999735e+00 9.665010000000000545e+00 1.228809999999999958e+00 9.736240000000000450e+00 8.495089999999999364e+00 9.304330000000000211e+00 7.969750000000000334e+00 6.593440000000000190e+00 4.938320000000000043e+00 7.451819999999999666e+00 2.273639999999999883e+00 1.822300000000000031e-01 1.074499999999999922e+01 1.133380000000000010e+01 1.013359999999999950e+01 7.308469999999999800e+00 4.451380000000000337e+00 6.953640000000000043e+00 8.004030000000000200e+00 1.139370000000000083e+01 9.397290000000000365e-01 2.872669999999999946e-01 2.523190000000000044e+00 9.619920000000000471e+00 4.966499999999999804e-01 3.709890000000000132e+00 4.695549999999999891e+00 2.306909999999999794e+00 7.397700000000000387e-01 8.836360000000000881e+00 8.313890000000000668e+00 1.172199999999999953e+01 9.032249999999999446e+00 4.837019999999999875e+00 9.904429999999999623e+00 9.314759999999999707e+00 2.454340000000000188e+00 7.184969999999999857e+00 4.872700000000000031e+00 8.183400000000000674e+00 6.495169999999999888e+00 1.135459999999999958e+01 1.148789999999999978e+01 6.166540000000000354e+00 1.091179999999999950e+01 5.922860000000000014e+00 1.109200000000000053e+01 3.640839999999999854e+00 1.186040000000000028e+01 9.235789999999999722e+00 5.468829999999999636e+00 5.114390000000000214e+00 5.171330000000000204e+00 5.877580000000000027e+00 7.650859999999999772e+00 1.050149999999999917e+00 5.872259999999999813e+00 7.762780000000000236e-01 8.747049999999999770e+00 1.653040000000000065e+00 5.308449999999999669e+00 5.616299999999999848e+00 1.036209999999999987e+01 5.277490000000000236e+00 1.090440000000000076e+00 1.143099999999999916e+01 9.763769999999999172e+00 2.836559999999999970e+00 8.937390000000000612e+00 2.085199999999999942e+00 3.787170000000000147e+00 1.122899999999999920e+01 1.771810000000000107e+00 1.011209999999999987e+01 1.080349999999999966e+01 1.038889999999999958e+01 3.622539999999999871e+00 6.173429999999999751e-01 2.091880000000000184e+00 5.007019999999999804e-01 5.067809999999999704e+00 3.488020000000000120e+00 1.060720000000000063e+01 2.034009999999999874e+00 8.079710000000000392e+00 8.565759999999999152e+00 7.351799999999999891e+00 2.246780000000000221e+00 7.263060000000000294e+00 9.254049999999999443e+00 8.595560000000000755e+00 9.595739999999999270e+00 4.092240000000000322e+00 7.021569999999999645e+00 7.095519999999999605e+00 2.421009999999999884e+00 9.582090000000000884e+00 4.357120000000000104e+00 3.141210000000000058e+00 6.037490000000000023e+00 2.965209999999999901e+00 8.639310000000000045e+00 6.155380000000000074e+00 3.534860000000000113e+00 2.968379999999999797e+00 1.049530000000000030e+01 5.821780000000000399e+00 6.515670000000000073e+00 9.834530000000000882e+00 9.475949999999999207e+00 1.146640000000000015e+01 1.624120000000000008e+00 1.146020000000000039e+00 7.475230000000000485e-01 3.158129999999999882e+00 5.112289999999999779e+00 1.901880000000000015e+00
7.656640000000000335e+00 1.822249999999999925e+00 3.054860000000000131e+00 6.350069999999999659e+00 7.616579999999999906e+00 1.774569999999999981e+00 5.061799999999999855e+00 2.020379999999999843e+00 5.998679999999999568e-01 7.955689999999999706e+00 8.921860000000000568e+00 6.699600000000000222e+00 5.192050000000000054e+00 6.208269999999999733e+00 5.397700000000000387e+00 3.528020000000000156e+00 7.864049999999999763e+00 1.872339999999999893e+00 3.759659999999999780e+00 1.020720000000000027e+01 9.393660000000000565e+00 4.178599999999999676e-02 3.840129999999999932e-01 6.016519999999999868e+00 1.163640000000000008e+01 9.487069999999999226e+00 8.185760000000000147e+00 5.881380000000000052e+00 7.412300000000000111e+00 1.153979999999999961e+01 3.730980000000000185e+00 8.390359999999999374e+00 5.635299999999999976e+00 1.167239999999999966e+01 1.321620000000000017e+00 9.390169999999999462e+00 5.742880000000000429e+00 8.026429999999999509e+00 7.676949999999999719e+00 3.957240000000000091e+00 5.567050000000000054e+00 1.055439999999999934e+01 8.271110000000000184e+00 9.288149999999999906e+00 1.803940000000000099e+00 1.125869999999999926e+01 8.144590000000000884e+00 1.862069999999999892e+00 1.531749999999999945e+00 5.291920000000000179e+00 1.055070000000000086e+01 4.791649999999999743e+00 3.643120000000000247e-01 7.734020000000000117e+00 9.528930000000000788e+00 1.170669999999999966e+01 7.567960000000000242e+00 7.026959999999999873e+00 1.128950000000000031e+01 8.658580000000000609e+00 5.369010000000000282e+00 5.335569999999999702e+00 7.953800000000000203e+00 6.648249999999999993e+00 9.511070000000000135e+00 1.025239999999999974e+01 7.114230000000000054e+00 3.474590000000000067e+00 6.690240000000000187e+00 9.817119999999999180e+00 3.454590000000000050e+00 6.292650000000000077e+00 7.646880000000000344e+00 5.251500000000000057e+00 1.351189999999999891e+00 1.237279999999999935e+00 7.684249999999999581e+00 1.065399999999999991e+01 9.116789999999999949e+00 1.135660000000000025e+01 3.427880000000000038e+00 2.758119999999999905e+00 4.885010000000000296e+00 8.243140000000000356e+00 7.262470000000000425e+00 7.878370000000000317e+00 4.070490000000000386e+00 1.342370000000000063e+00 2.667240000000000055e+00 4.698089999999999655e+00 4.004590000000000316e+00 8.840980000000000061e+00 1.169280000000000008e+01 1.073279999999999923e+01 1.069309999999999938e+01 5.413520000000000110e+00 6.560010000000000119e+00 2.300749999999999851e+00 8.529840000000000089e+00 3.857219999999999871e+00 1.469580000000000108e+00 3.414969999999999839e+00 1.170880000000000010e+01 6.283140000000000391e+00 1.199729999999999919e+01 1.549050000000000038e+00 9.744009999999999394e+00 5.337640000000000162e-01 2.504040000000000155e-01 5.245580000000000354e+00 6.122959999999999958e+00 9.743999999999999773e+00 3.193189999999999973e+00 1.065719999999999956e+01 3.490450000000000053e+00 4.827989999999999782e+00 4.108299999999999841e+00 1.103640000000000043e+01 2.584389999999999965e+00 3.490629999999999900e+00 9.219400000000000261e+00 5.282309999999999839e+00 3.457650000000000112e+00 1.093970000000000020e+01 1.161399999999999988e+00 2.870690000000000186e-01 5.116609999999999658e+00 1.205809999999999960e+01 1.054969999999999963e+01 8.773690000000000211e+00 1.126149999999999984e+01 -9.291399999999999659e-02 8.764480000000000715e+00 5.788350000000000328e+00 7.925169999999999604e+00 6.654740000000000322e+00 4.049599999999999866e+00 4.078820000000000334e+00 1.555469999999999908e+00 5.663149999999999906e+00 2.278249999999999886e+00 1.909589999999999899e+00 7.859910000000000174e+00 7.642739999999999867e+00 1.168670000000000009e+01 4.119959999999999845e+00 8.987349999999999284e+00 3.999199999999999977e-01 1.027909999999999968e+01 1.025450000000000017e+01 -1.101769999999999972e-01 1.233489999999999931e+01 2.959690000000000154e+00 1.413000000000000034e+00 2.582780000000000076e+00 1.141290000000000049e+01 2.639009999999999856e+00 1.091189999999999927e+01 4.490479999999999805e+00 2.003060000000000063e+00 5.042109999999999648e-01 1.201620000000000049e-01 3.097500000000000142e+00 2.438079999999999803e+00 6.973930000000000184e+00 1.012059999999999960e+01 8.187160000000000437e+00 4.981950000000000323e+00 3.926229999999999887e+00 4.389660000000000117e+00 8.905579999999999607e-01 7.131240000000000023e+00 2.130790000000000184e+00 1.164969999999999928e+01 7.674719999999999764e+00 6.506890000000000285e+00 1.027650000000000041e+01 7.939510000000000289e+00 1.025039999999999951e+00 5.632520000000000415e+00 1.966979999999999951e+00 1.154429999999999978e+01 7.881380000000000052e+00 1.192530000000000090e+00 8.617749999999999133e+00 4.682339999999999947e+00 5.104289999999999772e+00 1.058709999999999951e+01 1.195789999999999909e+00 5.946089999999999876e+00 9.799049999999999372e+00 4.463250000000000384e+00
7.320020000000000415e+00 8.241699999999999804e+00 1.108719999999999928e+01 3.737929999999999975e+00 9.923539999999999139e+00 6.481080000000000396e+00 3.298890000000000100e+00 1.153490000000000038e+01 9.510870000000000601e+00 2.693630000000000191e+00 3.966340000000000199e+00 6.442709999999999937e+00 1.090010000000000012e+01 8.131530000000000147e-01 7.151880000000000237e+00 8.048079999999999679e-01 7.834229999999999805e+00 7.084510000000000529e-01 7.755259999999999820e+00 6.524409999999999599e+00 4.922640000000000349e+00 1.096620000000000061e+01 5.172049999999999592e+00 1.303169999999999940e+00 1.501509999999999900e+00 3.920139999999999958e+00 1.139969999999999928e+01 5.924089999999999634e+00 9.267279999999999518e+00 6.881350000000000300e+00 4.533430000000000071e+00 3.691920000000000091e+00 1.170199999999999996e+01 4.014809999999999768e-01 7.381310000000000038e+00 7.670480000000000409e+00 4.070879999999999832e+00 7.461440000000000294e-01 6.867399999999999949e+00 9.939579999999999416e+00 7.606440000000000090e+00 6.155809999999999782e+00 3.135740000000000194e+00 8.994619999999999393e+00 1.633839999999999959e+00 9.837659999999999627e+00 1.206719999999999970e+01 3.146259999999999835e+00 5.125729999999999897e+00 2.228110000000000035e+00 8.892269999999999897e+00 9.751569999999999183e+00 1.056039999999999957e+01 8.342499999999999361e+00 6.898729999999999585e+00 2.331080000000000041e+00 2.865149999999999864e+00 9.252990000000000492e+00 4.194549999999999557e+00 4.534250000000000114e+00 9.101110000000000255e+00 8.004160000000000608e+00 8.616319999999999979e+00 2.099460000000000104e+00 9.779840000000000089e+00 1.159299999999999997e+01 7.992890000000000050e+00 6.415429999999999744e+00 6.214819999999999789e-01 8.749530000000000030e+00 9.879070000000000462e+00 1.318109999999999893e+00 8.078599999999999781e+00 1.206290000000000084e+01 1.136469999999999914e+01 1.289649999999999963e+00 3.936119999999999841e+00 4.213409999999999656e+00 9.160199999999999454e-01 1.856800000000000006e+00 5.930909999999999904e+00 6.780369999999999564e+00 1.201820000000000022e+01 6.054369999999999585e+00 1.527109999999999967e+00 2.416310000000000180e+00 8.296519999999999229e+00 4.422740000000000116e+00 1.188479999999999981e+00 3.962209999999999788e+00 3.861660000000000093e+00 6.322569999999999801e+00 1.224949999999999939e+01 6.699990000000000112e-01 6.806259999999999977e+00 4.103439999999999976e+00 4.095829999999999749e-01 1.084409999999999918e+01 1.137799999999999923e+00 6.628350000000000186e+00 1.143839999999999968e+01 8.627409999999999357e+00 1.001270000000000060e+01 5.166830000000000034e+00 1.039780000000000015e+01 7.238010000000000055e+00 5.006920000000000037e+00 1.038969999999999949e+01 5.903150000000000119e+00 8.033970000000000056e+00 2.323109999999999786e+00 8.369839999999999947e+00 9.417540000000000688e+00 5.330129999999999590e+00 1.015269999999999939e+01 9.708560000000000301e+00 1.126520000000000010e+01 7.236670000000000158e+00 1.190099999999999980e+01 3.340300000000000047e+00 3.224019999999999886e+00 5.011899999999999800e+00 9.286789999999999878e+00 1.059930000000000039e+00 6.866620000000000168e+00 1.027660000000000018e+01 8.237059999999999604e+00 4.045510000000000161e+00 7.107289999999999885e+00 8.872780000000000555e+00 2.219199999999999839e+00 3.052500000000000005e-02 1.136730000000000018e+01 1.044540000000000024e+00 1.049990000000000023e+01 2.709919999999999884e+00 6.840869999999999784e+00 6.397590000000000110e+00 4.407180000000000319e+00 -3.169919999999999960e-01 1.649720000000000075e+00 1.512029999999999985e+00 5.559160000000000323e+00 1.859050000000000091e+00 5.150619999999999976e+00 3.237499999999999822e+00 6.006639999999999979e+00 6.077989999999999782e+00 6.768360000000000376e+00 8.432029999999999248e+00 4.771759999999999557e+00 5.294830000000000148e+00 2.155780000000000030e+00 3.414150000000000240e-01 1.030910000000000082e+01 8.904320000000000235e+00 7.289769999999999861e+00 4.618439999999999657e+00 2.929100000000000037e+00 6.089109999999999800e+00 1.348389999999999977e+00 1.177180000000000071e+01 2.130209999999999937e+00 1.464599999999999902e+00 2.795790000000000219e+00 3.644270000000000120e+00 8.554000000000000270e+00 9.126459999999999795e+00 1.056450000000000067e+01 2.319879999999999942e+00 3.405409999999999826e+00 1.129909999999999926e+01 4.885449999999999626e+00 6.419120000000000381e+00 1.067650000000000077e+01 8.118570000000000064e+00 2.373349999999999849e+00 1.639140000000000041e+00 1.070770000000000088e+01 5.398559999999999803e+00 9.595399999999999707e+00 2.196009999999999796e+00 9.384420000000000428e+00 2.613319999999999865e+00 1.541069999999999940e+00 1.152439999999999998e+01 5.317009999999999792e+00 6.844459999999999766e+00 5.607330000000000148e+00 5.344560000000000421e+00 1.009720000000000084e+01 1.141239999999999988e+01