-1.049683523472245906e+04
-1.049661165395793796e+04
-1.049585690129929026e+04
-1.049571256172800713e+04
-1.049654783820379453e+04
-1.049536469318727723e+04
-1.049611382537740246e+04
-1.049331755795531717e+04
-1.049719834179611098e+04
-1.049308281426666144e+04
-1.049871895590199529e+04
-1.049711445324481792e+04
-1.049638836737432393e+04
-1.049478985337968152e+04
-1.049651584467385692e+04
-1.049821878289743836e+04
-1.049577697661697130e+04
-1.049761663439465337e+04
-1.049460997560537908e+04
-1.049698934859055771e+04
-1.049599247568847568e+04
-1.049359362463810430e+04
-1.049968230071498874e+04
-1.049664859102926312e+04
-1.049548854460863731e+04
-1.049708454694104876e+04
-1.049723629911747958e+04
-1.049854731782610543e+04
-1.049920174470989878e+04
-1.049586824182366581e+04
-1.049682704308785287e+04
-1.049353566578373830e+04
-1.049616445345226202e+04
-1.049509980669172910e+04
-1.049892564770406534e+04
-1.049610257611737143e+04
-1.049815211755557539e+04
-1.049680942365635747e+04
-1.049623830068826101e+04
-1.049859648893915619e+04
-1.049638806815013595e+04
-1.049861367156726737e+04
-1.049863733801343369e+04
-1.049579837015094017e+04
-1.049850309215881498e+04
-1.049324365905125524e+04
-1.049455683547416629e+04
-1.049836764711840988e+04
-1.049764502493303189e+04
-1.049875108518273555e+04
-1.049435376970226389e+04
-1.049318429060082963e+04
-1.049859890935865951e+04
-1.049589452144908500e+04
-1.049828718658684193e+04
-1.049395717824866733e+04
-1.049727527686486792e+04
-1.049391267633263487e+04
-1.049603678554034377e+04
-1.049869824343742403e+04
-1.049654713471729883e+04
-1.049530750810547397e+04
-1.049788671440937469e+04
-1.049805685100593291e+04
-1.049729957858343187e+04
-1.049887599092330311e+04
-1.049661945762442883e+04
-1.049780819835375041e+04
-1.049521902248215156e+04
-1.049780898003006587e+04
-1.049602455490476314e+04
-1.049539441100732802e+04
-1.049391741780053599e+04
-1.049702318122932957e+04
-1.049656777960566615e+04
-1.049627336094381280e+04
-1.049915113338832634e+04
-1.049594386316426244e+04
-1.049500013320280232e+04
-1.049939685575115982e+04
-1.049793740684718614e+04
-1.049483367362839272e+04
-1.049275055574087673e+04
-1.049453072896819140e+04
-1.049565258999185971e+04
-1.050108621977364965e+04
-1.049645701717773591e+04
-1.049549837591782671e+04
-1.049517160144203626e+04
-1.049566569750185408e+04
-1.049783077355150817e+04
-1.049496510615506850e+04
-1.049576611101165327e+04
-1.049994564521733264e+04
-1.049063658876981572e+04
-1.049486420747869852e+04
-1.049443780565883389e+04
-1.049539700147749136e+04
-1.049699070851368378e+04
-1.049390195064112231e+04
-1.049807863866588195e+04
-1.049707567969320553e+04
-1.049932615946413716e+04
-1.049643060227011665e+04
-1.049518700631691900e+04
-1.049516555751994747e+04
-1.049609016547446663e+04
-1.049774186765757258e+04
-1.048938595067262759e+04
-1.049776528433821477e+04
-1.049485366794241600e+04
-1.049101479603670305e+04
-1.049699950699441615e+04
-1.049828553202966395e+04
-1.049639318210117381e+04
-1.049915381199752119e+04
-1.049839243339351560e+04
-1.049494662771382355e+04
-1.049811702262951258e+04
-1.049619191612252143e+04
-1.049454699504677592e+04
-1.049495158126734714e+04
-1.049673782974196183e+04
-1.049493067478861667e+04
-1.049641598098111353e+04
-1.049820900025794617e+04
-1.049579651436937456e+04
-1.049801166030159584e+04
-1.049503905972520079e+04
-1.049609068434682013e+04
-1.049607824398211415e+04
-1.049832219165845345e+04
-1.049151192695603822e+04
-1.049716766456530604e+04
-1.049607299665965547e+04
-1.049633662297776755e+04
-1.049801620647528762e+04
-1.049668251059276190e+04
-1.049618173378629945e+04
-1.049422852655771931e+04
-1.049473556476197336e+04
-1.049383186273620413e+04
-1.049596071304472571e+04
-1.049294505974921776e+04
-1.049390344838200326e+04
-1.049694207470730908e+04
-1.049688686083045832e+04
-1.049520903471403108e+04
-1.049989418641145858e+04
-1.049449354445783683e+04
-1.049650500381748134e+04
-1.049628722236217254e+04
-1.049506816179675116e+04
-1.049498414050452084e+04
-1.049190926300452884e+04
-1.049609478571627187e+04
-1.049579753731008532e+04
-1.049325003739257409e+04
-1.049669205102501292e+04
-1.049809123891495437e+04
-1.049130844720857931e+04
-1.049363494742147122e+04
-1.049530870154705372e+04
-1.049637086086021191e+04
-1.049424172046264721e+04
-1.049438266124020083e+04
-1.049682008628143922e+04
-1.050177943896603028e+04
-1.049488982642731753e+04
-1.049622186949306342e+04
-1.049539455113890654e+04
-1.049849424803732109e+04
-1.049618275595812702e+04
-1.049551071586134458e+04
-1.049590742259746185e+04
-1.049509933188465766e+04
-1.049760404010239290e+04
-1.049522687934331043e+04
-1.049596380178193976e+04
-1.049326880340282332e+04
-1.049861953050560260e+04
-1.049755239167873697e+04
-1.049565848515543985e+04
-1.049562875397662356e+04
-1.049699846975676337e+04
-1.049777127505150020e+04
-1.049096523299818364e+04
-1.049778742317744400e+04
-1.049518135435000113e+04
-1.050084925487920736e+04
-1.049676684114350610e+04
-1.049599174468450474e+04
-1.049798579683454591e+04
-1.049821071555577873e+04
-1.049351982765601497e+04
-1.049356390072413342e+04
-1.049281927534932402e+04
-1.049362190042657130e+04
-1.049666481784614734e+04
-1.049581498818865839e+04
