3.658129579587674485e-01 -9.949361900044216833e-01 9.870619294687926759e-01 1.271838858053188970e+00 -9.646912751004784736e-01 -2.474588574671943597e+00 -1.311967093501426596e-01 8.863312498942917117e-02 -4.656946592700721421e-01 1.895401822406571346e-01 4.759729012596333048e-02 -3.159628672446378878e-02 1.710409921654690857e+00 -9.992335318248520004e-02 2.439123291913387059e-01 -1.275750534399726188e+00 -2.246491101013372571e-01 -4.717156686484877959e-01 -8.140328574964375008e-01 1.125403734498590769e+00 -1.516886072179036260e+00 -1.241764664399022111e+00 -5.949944087092937789e-02 -4.060291251350529595e-01 -4.736655932844901495e-01 3.260379920846153690e-01 -1.303395035568367596e-02 1.463067226628232964e+00 -6.852596699842375960e-01 2.267425022936277734e-01 5.041928153153228953e-01 1.449018718965895403e+00 3.173071428204388589e+00 3.136797276391920658e-02 -1.084187922413974769e+00 1.165417298745924590e+00 -1.889950569488253684e+00 5.710728649152982395e-02 5.879732402019159920e-01 -1.836837234644358219e+00 1.196440743686499442e+00 5.396642687214623368e-01 -7.723233936052387172e-02 -5.028378439503793373e-01 -2.097701361185500268e-01 2.487701715004933256e-01 -1.219743680060370927e+00 -1.972110685163864563e+00 8.271187441359385828e-02 1.899644142619393017e-01 6.315338983678004947e-01 1.031347124504963908e+00 -1.793899811884284712e-01 4.772337702489469757e-01 -2.136447885795937918e-01 3.180680865114611233e-01 2.284630845278218525e-01 2.133561565389324066e+00 -3.908015095638666114e-01 2.671103645563111528e-01 4.185169731797042658e-01 5.333768930557446497e-01 1.862044330017996463e-01 -2.701298681065764651e-01 7.586039871472893825e-02 -4.277827147451386258e-01 5.643761696266222927e-01 1.080992555407614519e+00 6.226281112446661048e-01 3.974498681131479194e-01 4.738203736946791089e-01 3.915049633882472513e-01 -9.674829789108310152e-01 1.557828833108136024e+00 9.477944993582837485e-01 -5.574938406898459764e-01 -2.752268230095447632e-01 -4.730315592454102658e-02 4.156373376413042275e-01 4.078638643495193228e-01 1.572594678551914593e-01 -7.166744368256558473e-02 1.746504096246008997e+00 3.680996971086362285e-02 3.343102593893016450e-01 2.662511018804778473e-01 2.021401303830533576e-03 -3.573422014901842664e-02 5.519921941496062079e-01 -1.525908587385602089e-01 -1.090302005726756507e-01 4.491254420703704731e-01 -2.647824877558937334e-02 -3.223114351655464449e-01 1.256658036559501257e+00 1.970481634202141397e+00 -2.573473716398709255e-01 -2.062554380998062598e-01 -1.917703571210216673e-01 1.790156285684364398e-02 -2.807356686386305866e-01 8.194260034833554529e-02 -1.818705815165074513e-01 -1.402459640295651289e-01 -7.799451718106257259e-01 -6.741159946712608209e-01 -3.688329757296646139e-01 -2.960836118376715120e-01 6.730263611523555900e-01 -7.053271301424636208e-01 1.414350992407348517e+00 -3.030754697690334343e-01 -2.294565587885699365e-01 1.969779208819024019e+00 -2.886906618134609803e-01 5.321144814045353222e-01 -2.961370907833846822e-01 4.650400564057180497e-01 4.806697925110166580e-01 -6.439204449479759562e-01 2.439200425008165862e-01 -2.153029958511436082e+00 1.190784830956702400e+00 -6.694792672338047146e-02 -7.566190955083207381e-01 -1.091011115978087753e+00 -1.769248074793051961e-01 1.889421436458072201e-01 -4.880015502800361116e-01 -3.103933435809928532e-01 4.898224055374424957e-01 5.286805160249931357e-02 5.731647144456931686e-01 -3.882345201696356107e-01 4.443699296669553211e-01 2.737885479022402757e-01 -3.664989282816649152e-01 3.041872147751086275e-01 -3.008839128581213718e+00 -1.908654830751426168e+00 -1.708785498678653925e+00 4.761959187476697331e+00 1.265966458437379982e+00 4.611906007556352272e-01 1.684205238255249704e+00 -2.177251292933804760e-01 -7.064054508074681937e-01 -1.342208408860946778e-01 -4.830609184491524433e-01 3.732105359686646584e-01 -1.032102514613162159e+00 1.025160536083090518e-01 3.832023570662813211e-02 -2.995412313662791370e-01 -1.049498598588890219e-01 -2.929797761037816195e-01 -2.280210090506142429e+00 -9.193411291357308501e-01 -2.313796411075893289e+00 -2.566063797093647847e-01 -4.759831856722703813e-01 2.717064685638505006e-01 7.362333327789750692e-01 -6.842235154110453133e-01 9.775128523352050181e-02 -3.246377693040682910e-01 2.202036727389320436e-01 -5.176674527525081393e-01 -4.710091295003160372e-01 -2.078711193251015221e-01 2.408136356637673448e-01 -6.519911377649743045e-01 1.994981161986344009e+00 6.757908112692196934e-01 8.745555974247626319e-02 4.290872924881602435e-01 7.591799142549694457e-01 -1.731355156431497178e-01 8.539461487205591839e-01 -2.911574296065430278e+00 -2.452071367423550308e-01 -3.276336187052681370e-01 -2.423028186136257367e-01 2.866394357129827264e-01 4.387315004386415085e-01 -3.422179442660012172e-01 -5.101865710002501109e-01 2.235296517857842113e-01 -5.139532371286038848e-02 9.695254632605675438e-01 -2.813441459123071642e+00 -1.295640588439961605e-01
-4.189586887024696615e-01 1.403887630990318769e+00 4.041481060637194811e-01 7.633533289031222413e-01 2.201944167675585484e-01 -2.260051099075445838e-02 9.446058172201372560e-01 -8.186284472833449399e-01 4.727723920469542596e-01 9.271094602211971125e-01 -1.028039657400858786e+00 -1.252435770951322080e+00 -4.940225596584518208e-01 -5.666042876244594545e-02 1.281657386797869558e+00 4.942920112695449730e-01 -6.380804412319741603e-01 -3.876242431237475472e+00 5.822124264632201340e-01 5.920330120904282456e-01 -1.013563832393447495e+00 -1.185006533716523425e+00 -5.473045588695961694e-01 -4.686030911638563445e-01 1.729555384219997050e-01 -5.587937904471808048e-01 8.069849495162030317e-01 -6.974276727958738098e-01 -3.322821732172569487e-01 -5.789131868892245514e-01 -5.113029439920120378e-01 -7.928685647304599682e-01 -9.209012745327854743e-01 1.080408914990456548e+00 2.727215400911366383e-01 7.449133770447241565e-01 6.263258718083511423e-02 -1.980407635058879789e-01 -1.442620271643696439e-01 -4.026861768073495065e-03 9.330204263843951962e-01 3.459462495352184419e+00 -1.459677484223030453e+00 9.665702372892845395e-02 3.912169998344072197e-01 2.698892128508673105e-01 -4.896090039752216683e-01 4.000815978849297849e+00 -1.476054382906417661e+00 -1.284134901802157502e+00 -1.307239349012131902e+00 1.311010128905540695e+00 2.106584522600832621e+00 -2.749238442132544868e+00 -4.713829678996762085e-01 2.648699052633094464e+00 1.287888198194082845e+00 -3.096919466391396814e-01 2.083472876302012444e-01 -9.072600296108786211e-02 -4.215832708074686019e-01 -2.316327405025894182e-01 -1.005479255619389223e+00 7.655706482676902791e-01 1.352487679291771439e-01 -7.994444181706495955e-01 8.831405108736181120e-01 3.545885500065891205e-01 -3.508954174285909278e-01 -4.409236229922485623e-02 6.541760612297353727e-02 -6.704819974659262938e-01 -4.025041427036720187e-01 -4.273965350506138683e-01 -2.272459242922159339e-01 -3.183611922716196863e-01 -5.673920736324646885e-01 1.824655347875661637e-01 -9.808357460582660670e-01 -7.916040961967232281e-01 -1.023031662667201747e-01 -5.863776135812632795e-01 -7.295998866280176687e-01 -5.437677493636825649e-02 -6.319961827158401269e-01 7.860392005187650799e-01 -2.840091971810333391e-02 6.647690062459931104e-01 -6.896814531975773432e-01 -4.653552736530465195e-01 4.669339309928479675e-01 -6.251138537790638106e-01 1.048599740924403889e+00 1.262152998231527157e+00 2.010741510132134646e-01 3.168529831583826173e-01 -1.828900239191642907e+00 -3.583202491319765759e-01 8.852678416276110740e-01 1.284382241926080859e+00 -1.145611576889313810e+00 -8.530802011765116211e-01 -4.958470144602811214e-01 -6.694175607579819220e-02 3.604558074160794656e-01 -2.336464284969421712e-01 1.172185984923060476e+00 5.074195497802266308e-01 1.521563423046409014e+00 5.546743689653731157e-02 4.743068264124160327e-02 -1.448989408389879330e+00 5.061473679370119827e-01 -5.382054247888835574e-01 5.218619504465671355e-01 6.686416018245094905e-01 -2.779300808712178439e-01 -9.797733662328492743e-01 -5.129165683347798321e-01 4.068025129653661254e-01 -2.763915327407012179e-01 4.162518312963734424e-01 4.538105062472211348e-01 -1.013339117977325898e+00 9.503378346034492274e-01 -1.253571170106462906e+00 6.240992964724095815e-02 4.824022018197435258e-01 4.531080808641042013e-01 -1.588663559076819221e+00 9.740778585143991530e-02 4.504973827161654065e-01 -8.530889429272532354e-01 8.456872511523012143e-03 9.461880741043617871e-01 -1.651666385112591506e-01 -3.356132944704277032e-01 -1.391475887599182559e-01 4.611715745922564946e-01 1.058764340154324524e+00 -7.327993673994328550e-01 -1.517933025385497514e-01 1.990506928268554798e+00 1.103412060735955214e+00 -6.293865130091650384e-01 3.966080889387977454e-02 8.162326933595223655e-02 1.258102996535019891e+00 -2.526545941535423889e+00 -7.853002654707861296e-01 5.509709519747377771e-01 4.920782914493997823e-02 -4.201115713590933276e-01 -7.331588590431642238e+00 -4.788695060788846547e+00 2.138749537344130758e+00 1.626901519482350233e-01 -1.816607794987097069e-01 1.013282039487189756e+00 2.476671682451597745e-01 -7.771647808541739533e-01 -2.443525020522084243e-02 1.802932097282855972e+00 -3.278490771500163214e-01 -1.348587830019766898e+00 -1.784546138590802633e-01 -3.675505094738127920e-01 -4.275934815526152288e-01 5.366406514061421683e-03 1.222266446480262114e-01 9.861003368872198194e-02 -8.714430199401310695e-01 -1.142632696768965284e+00 2.007348682403140572e+00 7.719377281313458683e-01 1.008715246055666315e+00 4.930676519450930551e-01 -2.745681063801357069e-02 -4.695739397168026685e-01 -2.539668852060419368e-01 1.756058315585915519e-01 2.968384877252378540e-01 7.454759344159760104e-02 8.803020129857664910e-01 4.936168395799164776e-01 -4.319047073301057749e-01 7.820686459098797449e+00 4.017257155111666478e+00 -1.962434081313576550e+00 3.081842517465344655e-01 3.492730513350815746e-01 -3.412409250654726001e-01
-5.763523681425757328e-01 -5.677972794903680259e-02 -4.201007727258244118e-01 4.019045614469266003e-02 -1.257428853286655379e-01 -5.111188530058070612e-01 -1.484878923169718479e-01 -9.105721247006707264e-01 -2.955251682314746220e-01 -1.733951970622375771e-01 -3.196261750259883350e-01 3.737823493112898410e-01 -3.718103131881175805e-01 2.661575137254798551e-01 8.401151563854967197e-01 2.475231864682397309e-01 -6.260857307732737853e-01 -3.509951762311712686e-01 1.013051154423485922e+00 3.357295083332274555e-01 -1.965716351606720813e-01 -2.139564062824992619e-01 -3.405148455332902557e-01 -8.101648899036077989e-01 1.142648123387920878e+00 1.472011066078124486e+00 2.909131233843476605e-01 -3.416898396770838842e-01 2.240757540968164874e-01 1.020918215870268847e-01 1.395882758414198066e-01 -7.108714569951476436e-01 -4.101254066884272298e-01 2.283489275475495683e-01 -1.431816496168377140e-01 2.685753791364721699e-01 -6.767205221716174890e-01 -3.672938105343896531e+00 -5.700973883766652373e-01 3.348918429239321481e-01 -2.143749818768309889e-01 1.731293449955673969e-01 2.016109973528723287e-01 5.463177694770623427e-01 -1.034769777030605464e+00 6.336077501760805086e-01 1.151296800195126702e+00 9.624503015868448585e-01 -2.749368025731773191e-01 1.304469756688949045e-01 -2.237471671130597251e-01 2.443329616681978733e-01 6.183240845560217247e-01 2.025597344186488014e-01 -1.011151623409405564e+00 -5.095155130756765516e-01 3.192435948758865633e-02 -7.937766783663197101e-02 3.725286794108220723e-01 3.297624921211568805e-01 -1.073775468839498926e+00 2.509180196576975330e+00 1.833916461455409763e+00 1.029322123656710497e+00 4.771689784493330921e-01 7.881583037426483918e-01 -4.294256496639223437e-03 8.182160423365953950e-01 -2.186013612500650738e-01 -3.666804481647104735e-02 -3.976483572770447839e-01 3.361090031595380667e-01 -2.102658448076603737e+00 7.398914983540069712e-02 5.222691617649347862e+00 1.270101306538143238e+00 4.261454362533054208e-01 4.124265440159879947e-01 -5.009213436554476040e-01 -1.480986272986559715e-01 -1.811124146168972215e+00 -8.894762232787302159e-01 -6.938070453269674920e-02 1.549995196002423858e+00 4.296879021861694792e-01 8.003587024540916028e-02 2.345951655627186161e-01 5.208936729967800217e-01 -9.455175304004199699e-01 -2.750103361235328170e-01 -1.871757957753778789e-01 2.426216354053772062e-01 1.688268609688184929e-01 -1.194206969261711881e+00 -1.173406744703089366e+00 8.982621969946417151e-01 -7.528251756864785538e-01 -3.979908282178616363e-01 6.072899382376305555e-01 -5.175270705200112065e-02 -4.296102548707590452e-01 9.217404826039764590e-03 5.394256703482805948e-01 -7.713797987457807759e-01 7.875813481937046223e-01 1.114729542622499681e+00 6.232364342521532485e-01 1.001876111651965884e+00 -3.142032042424225846e+00 -2.162534812670684481e+00 -2.460431052235652061e+00 -1.169508952313611960e+00 2.223763577526549184e+00 9.485833138075526749e-01 -2.367754610417930061e-01 5.625254895725683157e-01 -3.584205221551887699e-01 1.719148072851839792e+00 -5.892191967929059082e-01 7.943526054739997733e-01 -2.234968445094716927e+00 -2.898610279715679305e-01 3.858068845666378643e-01 -3.504917542325830526e-01 -9.233628486974858607e-01 7.736603672480674154e-02 3.098708954190259601e-01 7.880796279859741960e-01 1.606420111715479160e-01 5.069685782860878787e-01 -5.833041168646528885e-01 -4.096209562485752520e-01 -1.970179786691240997e-01 2.811825777897776213e+00 -2.249915810421541096e-01 4.881670779014310568e+00 -1.959256197808698863e+00 -4.001116283698300968e+00 6.039906986636349728e-01 3.485881094534478142e-01 -4.816570961241825044e-01 5.362806969638421982e-03 4.366658761604713113e-01 -8.831029727674923890e-01 8.407635886022687410e-01 4.670974531537785968e-02 5.581731261445292969e-01 9.172662488861872410e-01 8.033535234140276593e-01 5.960182219873214615e-01 7.621716498911145221e-01 -3.574040108101335100e+00 -1.265137020558194436e+00 -1.263295596475513705e+00 -8.034687088355637608e-01 -1.843995185839810147e-01 -6.077753625141036897e-01 -1.287663483777961249e+00 1.953313349966325774e-01 2.603284629089364977e+00 2.355603062666513203e+00 -8.603060294953684961e-01 -6.842713379298080989e-01 1.140992847173972757e+00 -2.921369684881677253e-01 1.368021770359544753e+00 -8.353976963088390051e-02 -8.780502408388639601e-01 6.863734718728401463e-01 2.266227403084682290e+00 -2.524418610781431038e+00 -6.080844091138498664e-01 -1.498148386574792656e+00 1.753583885905418693e+00 1.167135309876959459e+00 7.298431129868860889e-01 -2.124435691835754592e-01 -8.798006478697056876e-01 9.220747260146836544e-01 -6.832860911991696373e-02 2.391167075786387042e-01 -4.586745192039581170e-02 3.076263223609694286e-01 -1.469261528359584457e+00 4.011949369749637229e-02 1.698771566093867369e+00 -8.032074847545803142e-02 3.676898632650461018e-01 -1.634506842627517775e-01 -2.155534212988580389e+00 -4.480270668007235169e-01 -2.505768342684603134e+00
2.370454268735180114e-01 1.402300231899775707e-01 8.410407535228398013e-01 2.787615756329309691e-01 1.643360179246202479e+00 4.983810937340730773e-01 7.129386239352134558e-01 -8.530323786577489464e-01 4.352666818211878841e-01 -1.157994009704434335e+00 -3.018025165948710509e+00 6.324091018832213029e-01 3.697668003971172346e-01 -5.951749001510757697e-01 2.420410803120104093e-01 2.384173675193129727e-01 -1.168895487099806396e-01 2.076165801123321802e-02 1.446183820622466421e-01 -3.769319506814149956e-01 1.286213381596124083e+00 -1.854664235509582371e+00 2.790907796814458663e+00 -2.438274827870822392e+00 1.942323940842905827e+00 1.581734950283175678e+00 -7.623967242616783935e+00 -4.160250599977245028e-02 6.182793473610501689e-01 -9.218510400398256532e-01 8.040199533529145404e-01 -1.463637497308962532e+00 -3.152177615490767693e-01 3.210150849526345329e-01 5.093072537197742555e-01 -1.796532621519393580e-01 4.129392219859496227e-01 1.385456935103294152e+00 -1.172080569693529695e+00 -8.797795648237995980e-01 -1.152214684022991653e+00 -1.845697256131257347e-01 -6.347236089472105824e-01 1.049840555309075274e+00 -9.470864175482163194e-02 5.600783135855600392e-01 -4.995581447603942848e-01 -3.940796660919560490e-01 -6.369152172801857414e-01 9.466791548077855278e-01 -1.324935737836864802e-01 -8.933215651637580468e-01 -3.747989635004714271e-01 1.458751372865055573e-01 -9.075397656346088082e-01 -9.716095994814848147e-02 4.954412943817457227e-01 6.161936684782374218e-01 -3.792531426136182965e-02 -5.071711812150396792e-01 -1.313969982862510433e+00 1.632187707577842026e-02 -3.047178904671852262e-01 1.282671429883891934e+00 -1.548507555714460970e+00 -4.512080356293919903e-01 -2.183231678882303350e-01 5.545252449821345964e-02 -4.100246194445831271e-01 -8.916225801961021047e-02 -1.970110366905940325e+00 1.613161029978494865e+00 -3.804574473334277895e-01 -3.016387373236245062e-01 8.828854574402168476e-01 -5.338355778593613099e-01 -4.472716766925254328e-01 -1.987226200637306206e-01 1.052881141905246620e+00 -1.792290815527203485e+00 -2.189414667759753907e+00 5.241286349917935183e-01 8.422265462999023455e-02 7.915896980190312293e-01 1.271133861566912548e+00 3.143749539334628751e-01 2.528325144921649836e-01 6.173028423811534049e-01 2.356661328726875393e+00 -1.129218223145707356e-01 1.575275824926418045e+00 2.013173773720818710e-02 1.686592250428330456e-02 9.394672104459886874e-01 7.687217922997111597e-01 -3.339369352105733268e-01 -1.410953022472036134e+00 2.402454218655651896e-01 -1.214862697822782556e+00 4.500551529727682687e-01 -1.116669697066496658e+00 -6.557259222141529342e-01 1.069991833430294026e+00 -3.373621588393739823e-01 -4.959688847500312581e-01 -6.007639641987311784e-03 1.904462389939894640e-01 9.185008926232762771e-02 1.116245465045214491e+00 5.095617929325436946e-02 6.327145489385446187e-01 -3.260765586320046316e-01 -1.779186416944955385e+00 1.416359023974750775e+00 -1.227701758558992218e-01 -5.043177709288642063e-01 -7.954226986088945850e-01 1.142665092668772309e-01 1.580667942472072096e-01 5.729086325710283645e-02 3.259726860643695212e-01 4.464993173034759177e-01 1.396875204233682666e-01 -1.108618030412877209e+00 -5.880148920730963180e-01 7.021991260388765754e-02 -7.699070708561418508e-01 1.413452134742862354e+00 -6.011110631252348790e-01 2.245910031699373810e-01 4.668423997203773879e-01 -2.999824326684125686e-01 -1.426763250019116969e+00 -6.400262521029217444e-01 -9.926021425564217626e-01 8.973227159002388209e-01 2.969343384510160000e+00 -2.683176003337222504e+00 -8.691120578159226007e-01 -9.828885148206401023e-01 -4.369723516570581112e-01 -1.337861701859858199e+00 1.973419376671941006e-01 6.470577050229365801e-01 3.077075692208028346e-01 1.457167573318935705e-01 -1.869443964910421363e-01 -1.382379838842260789e+00 4.795189667369204045e-01 -1.320585431291353140e-01 7.598679414603942694e-01 -3.407236191098242939e-01 -1.231586181212041442e+00 2.163655299427501011e-01 2.023525035040103781e-01 1.464274102451201820e-01 -4.720529973829861725e-01 1.684408355404833024e+00 3.128826856598133643e-01 -1.969538039342683566e+00 -5.709499661842843965e-01 -7.814862910443015620e-01 7.120613635372650130e-01 -7.948925371374498949e-01 -7.105999485015270789e-01 6.412377559115771675e-01 -1.088707921767999472e-02 -5.356178665693781538e-01 -2.943727997954826980e-01 4.338907816765276593e+00 1.689017314928168867e+00 1.086418611514971211e+00 3.163189650321989177e+00 1.383988320978710052e+00 -7.657223433540881752e-01 -6.363341479661872579e-01 2.756906500194798992e-01 -1.806523414175746245e+00 -6.048924873857228768e+00 6.961601703604091362e+00 1.053718293093909963e+00 1.519856210548643227e-01 -1.184165268762805034e+00 -5.711109172420556490e-01 -2.237816198953941904e-01 4.866462189606503230e+00 1.124338269349382663e-01 -8.166852075155566285e-03 8.709663374143995773e-02 1.192520325589220276e+00 -1.352660457424075924e+00 3.969587874097244118e+00
5.691908174027010547e-01 -1.076047295591043840e+00 -6.114103881607020341e-01 -3.772019165131400009e-01 -8.471903180592196270e-01 -8.965529276143486825e-01 -1.456114449464892102e+00 -7.088279442041471867e-01 1.228070454752034024e+00 -2.535673357750888729e-02 3.683717198228886880e-01 1.255366828552907932e-01 9.308864107621879214e-01 8.737703825199167884e-01 4.336689983180076480e-01 -1.596675630741785645e-01 3.419999147180937671e-01 -4.441683551792673795e-02 3.133506264348034226e-02 -1.939697301855379585e+00 -4.355243063577483170e-02 2.462792867597772550e-01 1.221207151978636191e-01 3.528412282995385119e-01 -1.086075626353522505e+00 -9.466205336557536043e-01 -2.999525564497016905e+00 -1.649441866659177469e+00 -1.256719228814692224e-01 1.795083547778819844e+00 7.744059871642602344e-01 8.478983998692869728e-02 1.683656050620426226e-01 -7.023791032600264217e-02 6.375153127575630685e-02 1.555023759561355023e-01 -4.798012738638098851e-01 1.700630473678031163e-01 5.888093629493157399e-01 1.209322484735153358e+00 1.046012182704898624e-01 8.316269164154305171e-01 1.177514339110364405e+00 7.359258288411245630e-01 -3.307616228088553489e-01 2.857935427735776579e-01 1.013174053154499710e-01 -3.333023869508616038e-02 5.386137159705781663e-01 -1.467066320482186104e+00 -5.272191009892550628e-01 2.448903768331310016e-01 -3.204854377018216405e-01 -3.258281900668176245e-01 4.513571596126305513e-02 7.811936995047748244e-02 -1.080274703405541790e-02 6.130224698415742690e-01 4.529527862332833887e-01 -1.414187984467049741e+00 -7.784631879496133056e-02 3.573247179887011349e-01 -1.314399357090111076e-01 3.332087987958636255e-01 -5.083425758144103357e-01 3.606337277547020381e-01 1.619810931189671566e+00 2.941984790012831752e+00 -3.257708544663655559e+00 8.075387651367131880e-01 -3.216038675761110494e-02 5.279503227277560114e-03 -7.390502334002886364e-01 -2.470382764123984221e-01 -6.300565424924748914e-01 1.174353424886338315e+00 1.769222363761459249e+00 -3.179122776600083466e-01 -9.628627065335942925e-02 2.653918392046445418e-01 -1.802811255434369486e-01 9.565480771743883892e-02 -4.070416255591797344e-02 -1.022516413594080964e+00 1.286298742221012370e+00 -3.019634676526423256e+00 5.035572386143474244e-01 6.975767967791123292e-01 2.676122438930037539e-01 6.954695206297617505e-01 -1.433060910097471607e+00 7.430668107557251156e-01 1.867001416909099543e-01 -1.182882288286321443e-01 4.858449089500272988e-01 2.983112156148767791e-01 -1.153901841916115112e+00 -2.248441539870006611e+00 4.728548216142409721e+00 2.903346251735083317e-01 -3.168241868029986197e-01 -1.282980476483638055e-01 -2.351005415997078796e+00 1.751641160358262395e-01 1.891779652275769275e+00 -4.168035900343562417e-01 -7.659100338847161238e-01 1.881817655974800552e+00 6.004811428512098204e-02 -4.256584693149367271e-01 -4.445817885672805336e-01 -6.955163147072607188e-01 -4.192389389468317851e-01 7.495706733074545269e-01 -5.597600110144405061e-01 -7.788308557013912115e-01 3.846154353626248801e-01 -1.550136092455552728e+00 5.413231444798335401e-01 -4.104287968612229109e-01 1.358315855933240890e+00 2.258354170990317378e-01 5.302617444679540437e-01 -6.474994205457019758e-01 -5.181096824959053881e-01 -4.916293768377885676e-01 -3.172910991367249300e-01 9.614984791972771561e-01 5.879629557892788183e-01 3.066503316017044761e-02 -5.145497330615581011e-02 -1.380831520519738842e-01 5.004379762615017713e-01 -6.201500820197464398e-04 -1.992321612878378945e+00 -7.700330549109468681e-01 7.305090287051411169e-01 -1.391163755675645097e+00 -1.420003305592722587e+00 1.054445915287988145e+00 -3.170725553681856268e-01 -2.019138733050361845e-01 -3.647876020188442481e-01 5.449710256422283239e-01 2.758814258738989111e-01 1.940956628182798072e-01 -1.622909110496611129e+00 6.204020501293565359e-02 1.811786462342804382e+00 2.297640627264205371e+00 -1.515233367068247183e-01 -6.974775521971638970e-01 -4.199218239459381330e-01 -1.173363035949381628e+00 3.712517153157311345e+00 -2.373058796235536949e+00 4.901412223291939374e-01 1.412753823124800023e+00 -1.572029035856871704e-01 2.414160451339880886e+00 -4.317681817523475907e+00 2.794574189919600382e+00 -1.424699682623473684e-01 6.730273895936192408e-02 2.662356752615220867e-01 -5.140303702233824101e-02 -7.930644827911976780e-01 -1.416693267385457922e-01 6.739786977625550346e-01 4.980514783090527198e-01 -1.172680665170906966e+00 8.064547880447583417e-01 1.781738493940862589e-01 9.260547937052580891e-02 2.312560224676909026e+00 -8.830721195295809789e-01 2.230735380853269001e-01 2.215648147514579502e-01 -1.142268114340978302e+00 -2.106155148373232422e-01 -8.369922944882280946e-01 8.977196942280325498e-01 -8.842239737449409942e-01 -1.050775922638423454e+00 -9.772377442971615924e-01 -9.758133531469169730e-01 1.111930125502669092e-01 -2.204746670119207552e-01 3.611998846703767807e-01 -1.030371133745699108e+00 3.410797683194485952e+00 9.853002095840501795e-01
5.513633023168448277e-01 2.730064183211854401e-01 -5.076339797837110535e-01 -1.510238742071018603e+00 1.006119974526683336e+00 2.850083278687318145e-01 -1.183936440581628557e-01 -1.007255373681823774e-01 -1.344255006975738354e-01 -5.052891337024424390e-01 3.449494842624264979e-01 -1.119304049363501093e-02 -3.558535327609577692e-01 -3.130796321618146694e-01 2.028132451901543953e-01 -5.735154129166197823e-01 7.390003539989985493e-01 -3.128518324219019958e-02 1.473092986287552364e+00 3.529939518272000587e-01 1.631791757691311850e-01 -1.238483422547141499e+00 -1.142546821923445116e-02 -1.315263247751631281e-01 -3.817393993686477027e-01 6.857317245242824377e-01 -5.589012625592391093e-01 2.056844989322552664e+00 -1.014007090578108450e-01 2.134807521980313649e-01 -3.346013082669327954e-01 2.666629926065954281e-01 -2.810097482354104725e-01 -1.067849590277976990e+00 6.678476451689220328e-01 -6.110792300737861310e-02 -4.574938686332140625e-01 -5.952551185696453029e-01 -1.342306110780999706e-01 1.232270608873043294e+00 -1.214818474848442964e+00 6.255812803334219740e-01 4.689054528953883749e-01 9.296903335724882034e-02 6.780338416653807210e-01 2.356930266117336636e-01 -2.649356226600608544e+00 -3.513355902894607086e-01 -7.254984628683247561e-02 3.299959482880199940e-02 1.112007258597447756e-01 -7.448917797781861028e-01 9.371979547976029556e-02 -1.930075719612700247e-01 -1.743333926050609994e+00 -3.102077099328923726e+00 -8.679082673167450857e-01 7.827615582113073289e-01 5.004549455423530357e-01 1.491467117905072692e+00 -2.330694729479984018e-01 -4.357335941549142500e-01 2.515361642792530716e-01 2.004992523467971355e-01 7.311451196267484409e-01 -1.148722611712049702e+00 3.513278769799828560e-01 3.793004509117491874e-01 7.699425520797399669e-02 -9.383775769270833456e-01 1.337616418618462200e-01 4.253283396692844054e-01 1.219852694834324680e+00 -3.535026702982962732e+00 -8.765106642670834614e-01 -7.783037795537374459e-02 -3.869145158076582880e-01 3.544759356882123957e-01 -1.948227707917258439e-02 -7.585181123017692428e-01 -7.282176615695855615e-01 -1.948546524709009742e-01 4.922808943783515412e-01 -9.612891914001113480e-02 3.295228653067114322e-01 -1.366798439476356796e-03 1.055144226906050031e+00 6.457047905405204347e-01 3.407621856572135011e-01 6.177327308293858454e-01 -6.985820981143930908e-01 1.330782940641712431e+00 -2.100054949017510442e+00 -3.453300075300008154e-01 3.891297782896989688e-01 1.045701079222625118e+00 -6.130949749506661717e-02 8.022829160585011055e-01 4.287437931060796847e-01 4.147811602892619853e-01 1.641433394538633905e-01 9.523679776580213918e-01 1.287502018499558254e+00 1.259805066826467312e+00 2.359989878876886937e-01 -9.387586144152895162e-01 -8.827265632649728966e-01 9.221981389663292950e-01 7.541179263549674383e-01 4.405415570627787547e-01 -7.161293629558872220e-02 -6.929344129147059217e-01 1.592225565393693865e+00 -5.328153641257566964e-01 -5.425130510219510621e-02 -2.983940051366057444e-01 -9.782785268560404424e-01 2.595960584629823376e-01 -1.303435144777652654e+00 -2.608420150539723092e-01 3.509900340248526263e-01 -1.154586783797748817e+00 8.219868222300041882e-02 -6.337342484515173791e-01 -1.633658378584953441e-01 -2.230174880364544504e-02 -4.790715947872046243e-01 -6.191319251686693698e-02 -7.355617606337695458e-01 7.615952085628026058e-01 2.132114548531277798e+00 2.698880301434140705e+00 5.306019528379906980e+00 -2.534284447824242559e+00 2.964453660521830347e+00 -2.095578144196561965e+00 1.628356763870505985e-01 -1.328735828306289168e-01 -4.585804168283282856e-01 -1.031358951579496752e+00 2.421680928080791051e-01 8.907314358410934885e-01 -1.185254388061078412e+00 -1.535622215121384138e-01 1.069058522983473258e+00 3.127705855620685482e-01 6.744363541249079330e-02 1.014874580784051572e+00 1.884721459882897909e-01 4.416188492865194548e-01 -1.677875182277087873e+00 -1.113429592865164741e+00 1.418142341126031436e+00 9.992109061170502127e-01 -1.762048985947051449e-01 -5.205141781704695214e-01 1.895163224033389993e+00 3.147986203120500370e+00 -2.065331172410091454e-01 -2.190756269388269395e+00 1.636883570387961617e+00 4.684246566046018634e-01 -9.381754882187636202e-01 5.333259852131908563e-01 5.372988538149193333e-02 -2.967238165243337167e-01 4.779264254400586998e-01 -6.114700377539975668e-02 1.425107973805168626e+00 1.085588659415153812e+00 -3.751548041777166276e-01 4.463990442802638348e-01 -7.986206367184142674e-02 -1.165326795914717675e-02 -4.050258806822996105e-01 -8.022078398462499926e-01 4.071969201900006441e-01 -7.890710453641948119e-01 1.293270031327100056e-01 -6.102117398678430504e-01 -4.156226309312329725e+00 2.139991380170066293e+00 -4.568178227685113946e+00 3.334638522292647789e-01 -4.566875706824620185e-01 -8.479086842819238967e-02 6.646445648530837635e-01 -2.862280592074969987e-01 -1.429022221254865332e+00 5.881295632740005108e-02 -3.237563951410650787e-01 -1.422128579464188199e-02