# the first line must be comment
6 atoms
2 atom types
0.0000000000e+00 1.3000000000e-09 xlo xhi
0.0000000000e+00 1.3000000000e-09 ylo yhi
0.0000000000e+00 1.3000000000e-09 zlo zhi
0.0000000000e+00 0.0000000000e+00 0.0000000000e+00 xy xz yz

Atoms

1 1 1.2830000000e-09 2.5600000000e-10 2.1800000000e-10
2 2 1.2090000000e-09 2.8700000000e-10 2.7400000000e-10
3 2 2.5000000000e-11 3.3200000000e-10 1.6800000000e-10
4 1 3.3600000000e-10 3.0000000000e-10 1.8100000000e-10
5 2 3.5100000000e-10 2.5100000000e-10 2.6000000000e-10
6 2 4.2700000000e-10 3.2200000000e-10 1.5600000000e-10

