# the first line must be comment
6 atoms
2 atom types
0.0 13.0 xlo xhi
0.0 13.0 ylo yhi
0.0 13.0 zlo zhi
0.0 0.0 0.0 xy xz yz

Atoms

1	2	12.83	2.56	2.18
2	1	12.09	2.87	2.74
3	1	0.25	3.32	1.68
4	2	3.36	3.00	1.81
5	1	3.51	2.51	2.60
6	1	4.27	3.22	1.56
