ITEM: TIMESTEP
0
ITEM: NUMBER OF ATOMS
6
ITEM: BOX BOUNDS xy xz yz pp pp pp
0.0000000000000000e+00 1.3000000000000000e+01 0.0000000000000000e+00
0.0000000000000000e+00 1.3000000000000000e+01 0.0000000000000000e+00
0.0000000000000000e+00 1.3000000000000000e+01 0.0000000000000000e+00
ITEM: ATOMS id v_virial0 v_virial1 v_virial2 v_virial3 v_virial4 v_virial5 v_virial6 v_virial7 v_virial8
3 136370 286154 -241908 202975 315088 -222941 -221106 -285303 232489
4 410167 66989.2 -53546.4 66000.6 158676 -241246 -53745.5 -240703 371450
5 -1504.62 25983 -31517.5 -953.046 151217 -238894 12235.7 -237632 376484
6 365177 105420 -125795 128065 53550.4 -70331.1 -159481 -72052 96108.2
1 460490 60096.2 -439047 79911.4 498461 -167751 -446916 -164310 408649
2 493615 -134140 -399206 -65497.1 60407.3 43124.9 -422007 101961 335494
