6.265340000000000131e+00 3.510429999999999939e+00 9.306330000000000879e+00 6.441749999999999865e+00 1.025350000000000072e+01 1.912919999999999954e+00 1.023820000000000086e+01 1.958229999999999915e+00 3.977739999999999831e+00 8.027990000000000848e+00 9.864899999999999780e-01 1.105920000000000059e+01 1.003270000000000017e+01 9.980460000000000775e+00 3.063849999999999962e+00 1.857429999999999914e+00 3.158609999999999918e+00 1.016910000000000025e+01 2.420139999999999958e+00 3.888320000000000221e+00 1.258140000000000036e+00 1.127169999999999916e+01 7.430550000000000210e+00 2.084830000000000183e+00 1.653089999999999948e+00 4.520310000000000272e+00 4.190889999999999560e+00 7.985789999999999722e+00 6.935369999999999813e+00 7.277449999999999974e+00 3.746630000000000127e+00 8.795959999999999113e+00 6.843140000000000001e+00 7.528970000000000162e+00 6.690949999999999953e+00 1.049009999999999998e+01 6.707250000000000156e+00 7.019650000000000389e+00 2.233919999999999906e+00 1.931259999999999977e+00 1.999319999999999986e-01 5.936919999999999753e+00 1.485330000000000039e+00 9.437879999999999825e+00 7.232400000000000162e+00 7.281259999999999621e+00 3.079810000000000159e+00 6.856269999999999865e-01 7.881079999999999863e+00 8.008160000000000167e+00 3.934219999999999828e+00 5.249979999999999869e+00 1.169359999999999999e+01 8.699889999999999901e+00 7.747630000000000017e+00 4.799680000000000391e+00 4.793599999999999639e+00 8.428499999999999659e+00 5.696500000000000341e+00 6.859180000000000277e-01 1.216960000000000086e+01 2.512179999999999858e+00 1.735289999999999999e+00 9.929719999999999658e+00 5.265179999999999971e+00 6.517489999999999561e+00 2.024739999999999984e+00 1.279309999999999892e-01 1.093960000000000043e+01 6.245899999999999785e+00 1.129870000000000019e+01 1.099450000000000038e+01 6.278380000000000294e+00 4.456629999999999647e+00 2.589830000000000076e+00 3.869990000000000041e+00 4.562990000000000101e+00 8.920600000000000307e+00 1.114690000000000047e+01 8.385389999999999233e+00 1.145809999999999995e+01 1.430809999999999915e+00 2.539339999999999931e-01 8.253389999999999560e+00 4.314820000000000100e+00 1.097189999999999976e+01 1.723149999999999959e+00 7.680679999999999730e+00 8.557079999999999131e+00 3.886430000000000162e-01 8.138700000000000045e+00 2.374690000000000134e-01 5.281130000000000102e+00 5.207840000000000025e+00 9.023509999999999920e+00 3.866099999999999870e+00 6.849409999999999776e+00 1.102710000000000079e+00 3.445710000000000051e+00 5.026819999999999844e+00 4.683720000000000105e+00 1.139659999999999940e+01 1.548229999999999995e+00 1.031189999999999962e+01 3.964960000000000040e+00 1.775090000000000057e+00 8.396850000000000591e+00 1.839990000000000014e+00 8.958819999999999339e+00 3.878340000000000121e+00 1.041820000000000057e+01 1.113439999999999941e+01 7.113220000000000098e+00 4.886029999999999873e+00 1.166520000000000046e+01 1.111250000000000071e+00 1.151619999999999955e+01 8.179259999999999309e+00 7.249290000000000456e-01 8.284140000000000725e+00 2.060999999999999943e+00 6.049920000000000186e+00 1.183469999999999978e+01 4.142210000000000392e+00 1.629050000000000109e+00 1.184989999999999988e+01 1.188959999999999972e+01 2.868479999999999919e+00 5.821970000000000312e+00 1.150019999999999953e+01 1.131109999999999971e+01 4.914349999999999774e+00 1.071790000000000020e+01 7.434079999999999799e+00 7.878680000000000128e+00 8.384499999999999176e+00 9.478740000000000165e+00 6.089509999999999756e+00 1.024380000000000024e+01 2.598360000000000003e+00 8.207959999999999923e+00 1.180560000000000009e+01 4.865079999999999849e+00 9.346059999999999590e+00 5.952530000000000321e+00 4.132299999999999862e+00 6.634920000000000151e+00 8.972300000000000608e+00 9.155519999999999214e+00 1.013460000000000072e+01 4.725579999999999892e+00 8.165350000000000108e+00 1.293430000000000080e+00 1.084789999999999921e+01 1.086170000000000080e+01 7.889190000000000147e+00 3.936669999999999892e+00 2.068010000000000126e+00 8.357680000000000220e+00 9.912979999999999237e+00 1.167159999999999975e+01 7.059670000000000112e-01 4.001299999999999635e+00 6.639630000000000365e+00 4.796039999999999637e+00 3.979810000000000070e+00 2.477809999999999846e+00 4.791229999999999656e+00 1.047190000000000065e+00 7.816029999999999589e+00 9.634900000000000020e+00 5.404049999999999798e+00 1.118399999999999928e+01 6.014999999999999680e+00 4.178130000000000344e+00 9.345240000000000435e+00 1.053759999999999941e+01 3.092950000000000088e+00 8.140450000000000186e-01 2.894820000000000171e+00 1.117539999999999978e+01 4.547500000000000320e+00 3.478979999999999850e-01 9.126810000000000755e+00 3.814400000000000013e+00 2.784460000000000157e+00 1.743810000000000082e+00 4.831080000000000041e+00 6.857310000000000016e+00 5.057400000000000340e+00 7.330949999999999633e+00 8.739779999999999660e+00
7.700079999999999814e+00 5.448380000000000445e-01 2.328580000000000094e+00 8.581110000000000682e+00 8.615410000000000679e+00 7.905129999999999768e+00 2.464240000000000042e-01 1.088679999999999914e+01 6.078969999999999985e+00 3.465809999999999835e+00 1.153669999999999973e+01 1.698780000000000012e-01 4.094450000000000034e-01 9.667289999999999495e+00 2.873969999999999914e+00 3.385969999999999924e+00 7.876579999999999693e+00 8.621309999999999363e+00 5.985409999999999897e+00 4.453940000000000232e+00 2.466950000000000198e+00 7.509499999999999509e-02 7.647260000000000169e+00 4.953380000000000116e+00 9.923349999999999227e+00 9.814370000000000260e+00 1.027979999999999983e+01 1.575610000000000066e-01 7.194099999999999717e+00 1.011640000000000050e+01 9.425760000000000360e+00 4.273760000000000225e+00 1.085379999999999967e+01 6.669069999999999609e+00 1.109849999999999959e+01 6.365269999999999762e+00 2.085679999999999978e+00 6.453159999999999563e+00 6.483819999999999695e+00 9.494260000000000588e+00 7.429520000000000124e+00 1.162190000000000012e+01 2.975159999999999805e+00 7.711240000000000094e+00 1.099119999999999919e+01 7.287379999999999747e+00 1.016840000000000011e+01 1.081769999999999898e+00 8.921939999999999316e+00 4.081660000000000288e+00 5.994200000000000195e+00 2.760159999999999947e+00 1.979770000000000030e+00 1.147659999999999947e+01 1.122749999999999915e+01 7.314799999999999969e+00 1.229430000000000023e+00 9.610920000000000130e+00 6.008880000000000443e+00 9.650349999999999540e+00 6.479540000000000299e-01 5.163829999999999920e+00 3.962650000000000006e+00 1.563350000000000017e+00 1.162650000000000006e+01 4.067949999999999733e+00 2.464210000000000012e+00 9.478939999999999699e+00 6.509450000000000180e+00 1.048910000000000053e+01 9.683799999999999741e+00 4.965639999999999610e+00 9.503780000000000783e+00 6.011540000000000106e+00 4.054899999999999949e+00 3.469450000000000145e+00 1.037519999999999953e+01 2.881289999999999907e+00 4.026440000000000019e+00 1.187829999999999941e+01 5.823590000000000266e+00 2.997150000000000092e-01 6.333680000000000421e-01 1.262420000000000098e+00 1.621050000000000102e+00 6.126579999999999693e+00 1.483989999999999920e+00 1.168859999999999921e+01 2.603849999999999998e+00 5.720369999999999955e+00 1.108680000000000021e+01 1.141549999999999976e+01 3.443680000000000074e+00 3.925520000000000120e+00 4.123210000000000264e+00 4.043919999999999737e-01 4.965749999999999886e+00 5.823319999999999830e+00 7.911059999999999981e+00 3.701449999999999907e+00 3.157849999999999824e+00 9.292099999999999582e+00 5.009870000000000267e+00 9.025879999999999459e-01 3.142570000000000086e+00 1.034600000000000009e+01 1.783849999999999936e+00 1.139320000000000022e+01 5.858640000000000292e+00 8.711550000000000793e+00 8.753130000000000521e+00 7.897490000000000343e+00 1.200329999999999941e+01 1.003079999999999927e+01 4.839769999999999683e+00 6.539299999999999891e+00 3.011620000000000186e+00 2.527130000000000210e-01 4.290840000000000209e+00 1.078079999999999927e+01 2.441929999999999934e-01 2.506909999999999972e+00 3.053090000000000082e+00 1.478869999999999907e+00 2.087380000000000013e+00 7.633650000000000269e+00 9.471450000000000147e-01 1.121620000000000061e+01 8.853970000000000340e+00 6.742759999999999643e+00 2.405949999999999811e+00 4.745809999999999640e+00 4.010919999999999597e+00 4.568570000000000242e+00 5.513239999999999696e+00 5.890850000000000364e+00 1.408420000000000005e+00 7.469699999999999562e+00 4.541579999999999728e+00 9.384280000000000399e+00 5.264389999999999903e-01 1.047550000000000026e+01 6.039179999999999993e+00 7.207650000000000112e+00 4.190479999999999983e+00 1.149280000000000079e+01 9.405480000000000729e+00 9.971859999999999502e+00 1.033370000000000033e+01 8.918040000000000411e-01 8.477869999999999351e+00 7.809639999999999915e+00 2.528030000000000221e+00 7.706389999999999851e+00 3.829819999999999780e+00 8.454250000000000043e+00 2.920679999999999943e+00 3.239780000000000104e+00 3.088010000000000144e+00 6.145609999999999573e+00 1.053480000000000061e+01 3.893299999999999983e+00 6.957370000000000054e+00 6.749550000000000161e+00 1.112560000000000038e+01 6.951699999999999546e-01 9.454069999999999752e+00 1.189770000000000039e+01 9.499060000000000059e+00 1.260899999999999910e+00 4.909150000000000347e+00 7.080910000000000259e+00 7.982389999999999652e+00 5.577499999999999680e+00 6.709579999999999878e+00 3.524179999999999868e+00 1.145350000000000001e+01 2.270300000000000207e+00 7.839599999999999902e+00 3.155930000000000124e+00 1.053289999999999971e+01 2.872809999999999864e+00 8.404370000000000118e+00 5.845259999999999678e+00 7.058410000000000517e-01 9.310300000000000520e-02 9.758119999999999905e+00 1.140939999999999976e+01 7.648859999999999992e+00 8.796260000000000190e+00 4.534729999999999706e+00 1.517640000000000100e+00
7.875539999999999985e+00 -2.032430000000000070e-01 9.356700000000000017e+00 7.368820000000000370e+00 3.608039999999999914e+00 2.109550000000000036e+00 2.623800000000000132e+00 5.926859999999999573e+00 4.628219999999999779e+00 1.674819999999999975e+00 3.623759999999999870e+00 6.201080000000000148e+00 9.410090000000000288e+00 9.948249999999999815e+00 9.633399999999999963e+00 7.250230000000000175e+00 1.062979999999999947e+01 7.427389999999999937e+00 8.001929999999999765e+00 2.006200000000000205e+00 3.723110000000000142e+00 6.165849999999999831e+00 1.127989999999999959e+01 2.110409999999999897e+00 5.236259999999999692e+00 1.210710000000000086e+01 8.483779999999999433e+00 3.417479999999999851e+00 1.094130000000000003e+01 1.009900000000000020e+01 3.846379999999999799e-01 5.746290000000000120e+00 8.062079999999999913e+00 6.583070000000000199e+00 4.756829999999999892e+00 9.395399999999999585e-02 9.686030000000000584e+00 4.762609999999999566e+00 4.106270000000000309e+00 1.520750000000000046e+00 2.596140000000000114e+00 3.930499999999999883e+00 2.010920000000000041e+00 7.673600000000000421e+00 -5.219100000000000128e-02 5.157960000000000100e+00 6.699799999999999756e+00 1.075730000000000075e+01 1.069250000000000078e+01 1.543849999999999945e+00 2.251850000000000129e+00 8.499710000000000321e+00 1.137389999999999901e+00 6.409399999999999820e-02 1.032310000000000016e+01 2.117539999999999978e+00 4.760909999999999975e+00 4.509640000000000093e+00 2.764590000000000103e-01 4.618240000000000123e+00 4.002699999999999925e+00 1.001079999999999970e+01 4.366740000000000066e-01 3.479429999999999801e+00 3.262309999999999821e+00 1.755409999999999915e+00 4.168120000000000047e+00 8.109899999999999665e+00 2.894530000000000047e+00 7.307380000000000209e+00 6.901620000000000310e+00 1.580419999999999936e+00 1.244070000000000009e+00 1.189700000000000024e+01 1.124109999999999943e+01 9.423280000000000101e+00 1.179739999999999966e+01 6.811910000000000132e+00 1.168859999999999921e+01 8.694929999999999382e+00 4.264910000000000423e+00 5.458929999999999616e+00 5.394860000000000433e+00 3.080839999999999801e+00 2.312069999999999848e+00 2.311850000000000183e+00 8.849199999999999733e+00 5.214019999999999655e+00 2.943789999999999907e+00 3.918250000000000011e+00 6.195170000000000066e+00 9.542759999999999465e+00 9.674329999999999430e+00 3.484649999999999803e+00 1.001339999999999897e+00 2.588420000000000165e+00 7.931350000000000122e+00 2.627200000000000202e+00 9.047269999999999257e+00 6.524169999999999803e+00 6.179420000000000357e+00 8.405359999999999943e+00 4.198389999999999844e+00 4.316939999999999777e+00 6.142660000000000231e+00 8.352479999999999905e+00 7.261720000000000397e+00 4.095869999999999678e+00 5.327169999999999739e+00 3.511169999999999902e+00 9.993339999999999890e+00 3.278910000000000213e+00 7.323380000000000223e+00 9.060079999999999245e+00 1.107699999999999996e+01 8.070809999999999818e+00 1.118629999999999924e+01 3.321689999999999920e-01 1.121289999999999942e+01 5.036789999999999878e+00 6.168050000000000033e+00 9.559139999999999304e+00 4.800799999999999734e+00 1.025810000000000066e+01 8.965939999999999799e+00 6.322460000000000413e+00 -1.656769999999999909e-01 6.009149999999999991e+00 5.276679999999999815e+00 8.258929999999999438e+00 7.698010000000000019e+00 1.055160000000000053e+01 9.861510000000000886e+00 4.982789999999999608e+00 1.501430000000000042e+00 7.536340000000000039e+00 4.037950000000000372e+00 5.335230000000000139e+00 5.581779999999999520e-01 8.969590000000000174e+00 8.062889999999999446e+00 6.203430000000000000e+00 1.592189999999999994e+00 6.679969999999999963e+00 2.741569999999999840e+00 1.412160000000000082e+00 1.125399999999999956e+01 1.031400000000000006e+01 5.579310000000000436e+00 1.008079999999999998e+01 9.289820000000000633e+00 1.099649999999999928e+01 3.502149999999999874e+00 3.066679999999999851e+00 1.014209999999999923e+01 7.476189999999999891e+00 2.170939999999999870e+00 5.130160000000000053e+00 1.103919999999999924e+01 1.058600000000000030e+01 3.598120000000000207e+00 7.056160000000000210e+00 1.836600000000000010e+00 5.214680000000000426e+00 2.071200000000000152e+00 1.040540000000000020e+01 1.208189999999999920e+01 1.111110000000000042e+01 1.213729999999999976e+01 1.231819999999999915e+01 8.609790000000000276e+00 1.343909999999999938e+00 1.135999999999999943e+01 1.856630000000000003e+00 2.365069999999999784e+00 8.749359999999999360e+00 3.974050000000000082e+00 9.932029999999999248e+00 8.562519999999999243e+00 1.969749999999999890e+00 1.172310000000000052e+01 3.239700000000000024e+00 1.024799999999999933e+01 5.495560000000000223e+00 1.541660000000000030e+00 1.047509999999999941e+00 2.286550000000000082e+00 8.364009999999999501e-01 6.559650000000000425e+00 7.919270000000000032e+00 1.092079999999999984e+01 1.137770000000000081e+01
7.756929999999999659e+00 6.488800000000000345e+00 6.715340000000000309e+00 9.374989999999999712e-01 8.664529999999999177e+00 3.638920000000000154e+00 5.998549999999999827e+00 4.027549999999999741e+00 5.520629999999999704e+00 3.105150000000000077e+00 6.874460000000000015e+00 3.990130000000000177e+00 1.059249999999999936e+01 9.497320000000000206e+00 3.837390000000000079e+00 6.528270000000000017e+00 8.233409999999999229e+00 4.581380000000000230e+00 2.957850000000000201e-01 2.515140000000000153e+00 1.382670000000000066e+00 1.171620000000000061e+01 5.512540000000000218e-01 8.554880000000000706e+00 5.124780000000000335e+00 1.220790000000000042e+00 9.619719999999999160e+00 4.730540000000000411e+00 2.031019999999999825e+00 4.277359999999999829e+00 9.827799999999999869e+00 1.021429999999999971e+01 1.568999999999999950e+00 6.471809999999999619e+00 5.110500000000000043e+00 8.484059999999999491e+00 1.101670000000000016e+01 2.500150000000000095e+00 4.920110000000000205e+00 9.305859999999999133e+00 1.405999999999999917e+00 9.303750000000000853e+00 7.655470000000000219e+00 3.203509999999999969e-01 2.981749999999999901e+00 3.070889999999999898e+00 4.810590000000000366e+00 7.350240000000000329e+00 5.629570000000000185e+00 8.147360000000000158e-01 1.098759999999999959e+00 9.713960000000000150e+00 4.747659999999999769e+00 9.030590000000000117e+00 3.502470000000000194e+00 1.165129999999999999e+00 6.806989999999999874e+00 4.353950000000000209e+00 1.117109999999999914e+01 1.117350000000000065e+01 6.010749999999999815e+00 5.535339999999999705e+00 1.103120000000000012e+01 -5.087000000000000376e-03 9.915139999999999176e+00 7.909769999999999968e+00 1.050849999999999973e+01 3.406639999999999890e+00 1.149460000000000015e+01 8.884159999999999613e+00 8.876699999999999591e-01 5.358170000000000321e+00 1.923119999999999941e+00 1.198499999999999943e+01 4.792130000000000223e+00 8.117839999999999279e+00 5.674800000000000288e+00 3.862940000000000040e+00 1.071340000000000003e+01 5.642450000000000188e+00 1.707069999999999976e-01 9.646530000000000271e+00 8.290979999999999350e+00 7.016499999999999737e+00 1.011459999999999937e+01 4.441089999999999982e+00 6.552229999999999777e+00 4.664509999999999934e+00 5.827230000000000132e+00 5.224510000000000431e+00 1.211129999999999995e+01 1.026789999999999914e+01 5.503020000000000245e+00 8.571450000000000458e+00 2.418169999999999931e+00 1.497789999999999955e+00 1.607339999999999991e+00 2.429850000000000065e+00 3.944350000000000023e+00 8.923090000000000188e+00 1.149949999999999939e+01 7.522710000000000008e+00 1.053069999999999951e+01 4.686679999999999957e+00 2.991800000000000015e+00 3.958079999999999821e+00 3.019829999999999792e+00 9.540969999999999729e-01 1.419189999999999952e+00 1.172450000000000081e+01 1.828440000000000065e+00 8.136139999999999262e+00 6.992989999999999817e+00 1.038310000000000066e+01 1.154879999999999995e+01 6.692339999999999733e+00 9.595700000000000784e+00 1.082789999999999964e+01 1.228279999999999994e+01 1.097889999999999944e+01 2.889079999999999870e+00 6.351659999999999862e+00 9.945090000000000430e+00 2.153610000000000024e+00 1.130400000000000027e+01 7.439910000000000245e+00 5.788560000000000372e+00 1.225680000000000014e+01 5.847459999999999880e+00 7.443380000000000329e+00 1.123610000000000042e+01 1.025309999999999988e+01 3.222010000000000041e+00 8.792040000000000077e+00 8.432610000000000383e-01 2.224470000000000169e+00 7.352849999999999664e-01 1.075259999999999927e+01 1.078940000000000010e+00 6.388169999999999682e+00 1.821660000000000057e+00 4.438159999999999883e+00 6.410350000000000215e+00 8.173120000000000385e-01 6.220989999999999576e-01 2.471210000000000129e+00 7.142940000000000289e+00 7.374369999999999870e+00 2.716279999999999806e+00 7.168899999999999828e+00 1.056269999999999953e+01 7.004349999999999632e+00 5.097170000000000201e+00 1.753959999999999964e-01 9.308360000000000412e+00 -3.747099999999999737e-02 1.043149999999999977e+01 1.477479999999999905e-01 3.254129999999999967e+00 4.736640000000000406e+00 6.925939999999999763e+00 7.984200000000000408e+00 4.382119999999999571e+00 1.142559999999999931e+01 3.558310000000000084e+00 1.008079999999999998e+01 9.627660000000000551e+00 9.692920000000000869e+00 6.198089999999999655e+00 9.340759999999999508e+00 6.925489999999999924e+00 6.429359999999999964e+00 3.260660000000000114e+00 2.581780000000000186e+00 1.255030000000000090e+00 6.160660000000000025e+00 6.127869999999999706e+00 8.816240000000000521e+00 7.413920000000000066e+00 1.787770000000000081e+00 6.963750000000000107e+00 9.297629999999999839e+00 1.025789999999999980e+00 2.556340000000000057e+00 9.137100000000000222e+00 8.645619999999999195e+00 6.530230000000000423e+00 2.929310000000000080e+00 1.111009999999999920e+01 3.372990000000000155e+00 3.187019999999999964e+00 9.469559999999999533e+00
5.373910000000000409e+00 3.579990000000000006e+00 8.065659999999999386e+00 5.138060000000000294e+00 1.139310000000000045e+01 1.686600000000000099e+00 1.759870000000000045e+00 9.720240000000000435e+00 6.897090000000000387e+00 4.815999999999999837e+00 4.740499999999999936e+00 1.038219999999999921e+01 8.442439999999999500e+00 1.100380000000000003e+01 2.132539999999999991e-01 4.815750000000000419e+00 9.943920000000000314e+00 5.777020000000000266e+00 1.099970000000000070e+01 8.175120000000000164e-01 1.094730000000000025e+01 1.134159999999999968e+01 2.981599999999999806e+00 4.799400000000000333e+00 7.610590000000000188e+00 1.367609999999999992e+00 8.223190000000000666e+00 1.172259999999999991e+01 1.066719999999999935e+01 5.940100000000000158e+00 1.777369999999999894e+00 2.250989999999999824e+00 5.725690000000000168e+00 4.377779999999999561e+00 7.858089999999999797e-01 4.158789999999999765e+00 3.408339999999999925e+00 1.161500000000000021e+01 1.208079999999999998e+01 2.443940000000000001e+00 9.830090000000000217e+00 1.605769999999999920e+00 2.747990000000000155e+00 1.135740000000000016e+01 8.713359999999999772e+00 6.766960000000000086e+00 7.908500000000000252e-02 5.971659999999999968e+00 6.128639999999999866e+00 4.631249999999999645e+00 5.943389999999999951e+00 8.675179999999999225e+00 4.411730000000000373e+00 3.501129999999999853e+00 8.524480000000000501e+00 8.976530000000000342e+00 9.764709999999999113e+00 1.528299999999999992e+00 4.651130000000000209e+00 1.028570000000000029e+01 1.157750000000000057e+01 8.980900000000000105e+00 3.587610000000000188e+00 1.613739999999999952e+00 3.990069999999999784e+00 8.213719999999999910e-01 9.937930000000000375e-01 1.143379999999999974e+01 1.084720000000000084e+01 9.595840000000000813e+00 3.049450000000000216e+00 6.777510000000000367e+00 1.130749999999999922e+01 2.373839999999999950e+00 8.731729999999999769e-01 8.468569999999999709e+00 5.776099999999999568e+00 1.145410000000000039e+01 9.694509999999999295e+00 7.446380000000000443e+00 5.260580000000000034e+00 1.196299999999999919e+01 3.136940000000000062e+00 8.228400000000000603e+00 1.123470000000000013e+01 6.352000000000000313e+00 3.794109999999999872e+00 8.973250000000000171e+00 5.095159999999999911e+00 6.241500000000000270e+00 2.798589999999999911e+00 8.987489999999999313e+00 1.084650000000000070e+01 5.340200000000000502e-01 1.124249999999999972e+01 1.992089999999999916e+00 5.951719999999999899e+00 2.342239999999999878e+00 1.265530000000000044e+00 9.670090000000000074e+00 7.549970000000000070e+00 4.328029999999999933e-01 6.142470000000000319e+00 5.872259999999999813e+00 4.406660000000000021e-01 1.852880000000000082e+00 1.557490000000000041e+00 1.732499999999999929e+00 1.119059999999999988e+01 5.309520000000000017e+00 1.294650000000000079e+00 3.243539999999999868e+00 7.199069999999999858e+00 8.920489999999999142e+00 6.366729999999999556e+00 9.838190000000000879e+00 7.821950000000000180e+00 1.006709999999999994e+01 3.563109999999999888e-01 5.294830000000000148e+00 9.820550000000000779e+00 1.000820000000000043e+01 7.745529999999999582e+00 1.986930000000000085e-01 6.253540000000000099e+00 7.526250000000000107e+00 5.958660000000000068e+00 8.520200000000000884e+00 3.456010000000000026e+00 3.055470000000000130e-01 8.224869999999999237e+00 9.832890000000000796e+00 4.454469999999999708e+00 5.862819999999999698e-01 7.524899999999999700e+00 2.218449999999999811e+00 8.129619999999999180e+00 4.397789999999999644e+00 5.649569999999999759e+00 1.009549999999999947e+01 1.128320000000000078e+01 6.934619999999999784e+00 1.529730000000000034e+00 1.084880000000000067e+01 1.094689999999999941e+01 1.014690000000000047e+01 1.174280000000000079e+01 6.940920000000000201e+00 2.447690000000000143e+00 4.653839999999999755e+00 1.868780000000000108e+00 1.180540000000000056e+01 4.515629999999999811e+00 9.644310000000000827e+00 5.380580000000000362e-01 1.764499999999999957e+00 3.977419999999999956e+00 6.720640000000000391e+00 6.162560000000000038e+00 6.240700000000000358e+00 5.497340000000000337e+00 3.227310000000000123e+00 6.870140000000000136e+00 5.634400000000000297e+00 8.864029999999999632e+00 1.754920000000000035e+00 1.837790000000000035e+00 9.738400000000000389e+00 3.537640000000000118e+00 2.379020000000000135e+00 1.174409999999999954e+01 1.111250000000000071e+01 2.658440000000000247e-01 7.745930000000000426e+00 1.610039999999999916e+00 7.648209999999999731e+00 1.080959999999999921e+00 1.815239999999999965e+00 5.157180000000000319e+00 4.294649999999999856e+00 4.409839999999999982e+00 3.607310000000000016e+00 3.854729999999999990e+00 1.013090000000000046e+01 6.590589999999999726e+00 9.148009999999999309e+00 8.073660000000000281e+00 1.000370000000000026e+01 3.130440000000000111e+00 1.070809999999999995e+01 3.581980000000000164e+00 1.056819999999999915e+01
2.284019999999999939e+00 1.676809999999999912e+00 3.868279999999999941e+00 6.026360000000000383e+00 3.986000000000000210e+00 6.093539999999999957e+00 8.335300000000000153e+00 4.994339999999999891e-01 1.162250000000000050e+01 8.198019999999999641e+00 5.215950000000000308e+00 6.458440000000000403e+00 4.296130000000000226e-01 1.129010000000000069e+01 1.021199999999999974e+01 3.115569999999999951e+00 2.214379999999999793e+00 1.277020000000000044e+00 7.120359999999999800e+00 2.837140000000000217e+00 1.193759999999999977e+01 1.516289999999999916e+00 1.012509999999999977e+01 2.009149999999999991e+00 7.314530000000000420e+00 9.612199999999999633e+00 2.936259999999999870e+00 1.128459999999999930e+01 7.168549999999999756e+00 7.019449999999999967e+00 2.735920000000000130e+00 8.941670000000000229e+00 1.221139999999999937e+01 9.462770000000000792e+00 3.629140000000000033e+00 1.070120000000000005e+01 1.069130000000000003e+01 5.036319999999999908e+00 5.358939999999999593e+00 2.571810000000000151e+00 4.695079999999999920e+00 3.134669999999999845e+00 7.758670000000000400e+00 1.129320000000000046e-01 8.570370000000000488e+00 6.006709999999999994e+00 1.163780000000000037e+01 5.114530000000000465e-01 3.310319999999999929e+00 3.916290000000000049e+00 6.726759999999999629e+00 8.987579999999999458e+00 1.078129999999999988e+01 9.815009999999999124e+00 7.607330000000000148e+00 2.993399999999999839e+00 4.465060000000000251e+00 1.009520000000000017e+01 1.824580000000000091e+00 6.136289999999999800e+00 8.254049999999999443e+00 5.879870000000000374e+00 3.970250000000000057e+00 3.332749999999999879e+00 1.193140000000000001e+01 1.317129999999999912e+00 1.882030000000000092e+00 1.170350000000000001e+01 4.609309999999999796e+00 7.813740000000000130e-01 4.045020000000000060e+00 6.790119999999999933e+00 9.728350000000000719e+00 5.603180000000000049e+00 2.809969999999999968e-01 1.541260000000000074e+00 2.257719999999999949e+00 1.076609999999999978e+01 5.938270000000000159e+00 8.725149999999999295e+00 7.958120000000000083e+00 1.505370000000000097e+00 5.952040000000000219e+00 8.282230000000000203e+00 4.385110000000000063e+00 3.719069999999999876e+00 1.012710000000000043e+01 6.479549999999999699e+00 5.713289999999999758e+00 8.739169999999999661e+00 7.472290000000000099e+00 7.943040000000000100e-01 5.553720000000000212e+00 1.536689999999999889e+00 6.189020000000000188e+00 5.446670000000000122e+00 1.240229999999999944e+00 1.016089999999999982e+01 6.544669999999999987e+00 1.146829999999999927e+01 4.318340000000000067e+00 8.711019999999999541e+00 4.096499999999999808e+00 3.403749999999999831e-01 1.090150000000000041e+01 1.086720000000000041e+01 8.044040000000000745e+00 3.999350000000000183e+00 5.811539999999999484e-01 5.833819999999999562e-01 6.257700000000000484e-01 2.498270000000000213e+00 8.876659999999999329e+00 4.539789999999999992e+00 4.988730000000000331e+00 8.144220000000000681e+00 2.126139999999999919e+00 9.800480000000000302e+00 9.808429999999999538e+00 5.223029999999999617e-01 1.141830000000000034e+01 1.940099999999999936e+00 3.938839999999999897e+00 5.728270000000000195e+00 5.151229999999999976e+00 1.229690000000000083e+01 5.352920000000000122e+00 1.067149999999999999e+01 5.582650000000000112e+00 8.708410000000000650e+00 7.820100000000000051e+00 5.762970000000000148e+00 3.183699999999999974e+00 6.492989999999999817e+00 1.149710000000000010e+00 7.493920000000000137e+00 3.066209999999999880e+00 8.364209999999999923e+00 8.746620000000000061e+00 3.038260000000000183e+00 1.558910000000000018e+00 5.036599999999999966e-01 6.373990000000000489e-01 7.301050000000000040e+00 4.383510000000000240e+00 1.948590000000000044e+00 8.228339999999999321e+00 8.523699999999999832e+00 4.391530000000000156e-01 2.513090000000000046e+00 5.135869999999999713e+00 6.916569999999999663e-01 3.819389999999999841e+00 9.493990000000000151e+00 1.102870000000000061e+01 6.959139999999999660e+00 1.558980000000000032e+00 4.146620000000000417e+00 1.779530000000000001e-01 1.120589999999999975e+01 4.525120000000000253e+00 2.298680000000000057e+00 7.942700000000000315e+00 7.672130000000000116e+00 9.799049999999999372e+00 3.246649999999999814e-01 8.266830000000000567e+00 6.132319999999999993e-01 1.099290000000000056e+01 1.085730000000000040e+01 4.224479999999999791e+00 4.740649999999999586e+00 6.603500000000000369e+00 5.038529999999999731e+00 6.346689999999999721e+00 1.027500000000000036e+01 1.041200000000000081e+01 3.514920000000000044e+00 1.028480000000000061e+01 9.023830000000000240e+00 7.679560000000000386e+00 7.446519999999999584e+00 5.485959999999999726e-01 5.282820000000000071e+00 4.006540000000000212e+00 2.722579999999999778e+00 1.141779999999999973e+01 8.526590000000000558e+00 9.620779999999999887e+00 4.181989999999999874e+00 6.505760000000000431e+00 9.470779999999999532e+00