-1.049761631384270004e+04
-1.049633900280353737e+04
-1.049388105762671876e+04
-1.049602185814467521e+04
-1.049629632102980577e+04
-1.049634756090497831e+04
-1.049039986219434468e+04
-1.049605366096648686e+04
-1.049673383731550348e+04
-1.049289860932679221e+04
-1.049289081655803238e+04
-1.049528775824340664e+04
-1.049415321367070828e+04
-1.049594335724647681e+04
-1.049036038421837839e+04
-1.049190618141783125e+04
-1.049327642957772150e+04
-1.049312628651651357e+04
-1.049555266525729894e+04
-1.049629937480060289e+04
-1.049674096581685262e+04
-1.049581000885553840e+04
-1.049718511736707478e+04
-1.049399726780449055e+04
-1.050272472231273423e+04
-1.049462825285208601e+04
-1.049453443409473039e+04
-1.049681681485498302e+04
-1.049618748221724491e+04
-1.049496304366806726e+04
-1.049490888102268400e+04
-1.049806469585960622e+04
-1.049546652879262183e+04
-1.049190507550093753e+04
-1.049460635083898705e+04
-1.049965766244922634e+04
-1.049314451903877307e+04
-1.049237508252648149e+04
-1.048871089118817144e+04
-1.049522019979515971e+04
-1.049783159758430884e+04
-1.049614788694765957e+04
-1.049228761661958924e+04
-1.049295642427450184e+04
-1.049664679248251196e+04
-1.049696145775742661e+04
-1.049630270895803369e+04
-1.049383804464663262e+04
-1.049614920723181240e+04
-1.049162792217653623e+04
-1.049821243570972547e+04
-1.049383152128375696e+04
-1.049539963550406173e+04
-1.049497127717289186e+04
-1.049476358726334547e+04
-1.049740954846625755e+04
-1.049438139556602619e+04
-1.049624856386514330e+04
-1.050015975349317523e+04
-1.049857516550125911e+04
-1.049394546554569570e+04
-1.050049950351104235e+04
-1.049320933054312991e+04
-1.049896629619444866e+04
-1.049651738231362287e+04
-1.050217297752687045e+04
-1.049702541394129548e+04
-1.049648048589587415e+04
-1.049023841874307800e+04
-1.049945848404348726e+04
-1.049576262252643755e+04
-1.049209467127300741e+04
-1.049288930316340702e+04
-1.049739952915836875e+04
-1.049627709495135059e+04
-1.049508417563593139e+04
-1.049682045259025290e+04
-1.049482712985144462e+04
-1.049528400362643515e+04
-1.049313389271187407e+04
-1.049403215141481814e+04
-1.049618214054018063e+04
-1.049740895988793091e+04
-1.049999910806115258e+04
-1.050438974068651441e+04
-1.049501546610918194e+04
-1.049608358322286767e+04
-1.049987886019462348e+04
-1.049605795007140659e+04
-1.049840479227551805e+04
-1.049700289370538303e+04
-1.050267064746722099e+04
-1.049362929569634616e+04
-1.050397044675218058e+04
-1.049159780247502567e+04
-1.049823230600386341e+04
-1.049297892353058160e+04
-1.049485640590780349e+04
-1.049466120656138446e+04
-1.049584904340257344e+04
-1.049333920290264177e+04
-1.049465441832956640e+04
-1.049268484073990112e+04
-1.049261742212723220e+04
-1.049656445109100969e+04
-1.049586518496312237e+04
-1.049740232235952681e+04
-1.049675894672982213e+04
-1.049483432092999283e+04
-1.049659143561850942e+04
-1.049554661523748655e+04
-1.049707517854378420e+04
-1.049012103819869844e+04
-1.049360333175454434e+04
-1.049569798297333546e+04
-1.049489310839414247e+04
-1.049590160956380714e+04
-1.049929604247254247e+04
-1.049737638350024281e+04
-1.049291579921340781e+04
-1.049187024218831539e+04
-1.049268619455359476e+04
-1.049547836591590385e+04
-1.049726406621374008e+04
-1.049754907716230264e+04
-1.049280913916559803e+04
-1.049369513222455498e+04
-1.049705978453569878e+04
-1.049365022005933497e+04
-1.049644536123364560e+04
-1.049426054336423476e+04
-1.049381248750858322e+04
-1.049218029347963238e+04
-1.049622127498697773e+04
-1.049645077192408462e+04
-1.049995447992074514e+04
-1.050241489694892334e+04
-1.049634686779241201e+04
-1.049167499929807673e+04
-1.049597132675572902e+04
-1.049867792877688407e+04
-1.049758590556033414e+04
-1.049725621038061217e+04
-1.049529873780099842e+04
-1.049830772120192887e+04
-1.050040376532670962e+04
-1.049530509854158117e+04
-1.049399210009239687e+04
-1.049800196202918596e+04
-1.049579014243804158e+04
-1.049625642626103763e+04
-1.049279532113002278e+04
-1.049644984967587334e+04
-1.049658598550350871e+04
-1.049511647792763324e+04
-1.049326211405785398e+04
-1.049239604311445873e+04
-1.050306976866481273e+04
-1.049339717057726739e+04
-1.049455352108732404e+04
-1.049603170218218656e+04
-1.049595851101182052e+04
-1.049225151364011981e+04
-1.049161612515427078e+04
-1.049442485368851521e+04
-1.049778839538652574e+04
-1.049255682364992572e+04
-1.049825543480526539e+04
-1.049599374474283286e+04
-1.050002589550397715e+04
-1.049399273532269945e+04
-1.049779875387937500e+04
-1.049867174298893588e+04
-1.049701318326992259e+04
-1.049146776723440053e+04
-1.049559738993055362e+04
-1.049681774604195016e+04
-1.049283320683330930e+04
-1.049383948848717773e+04
-1.049395063034940176e+04
-1.050151969109786660e+04
-1.049572752914638295e+04
-1.049150723582239516e+04
-1.049315621937022297e+04
-1.049677130525991561e+04
-1.049951613477611681e+04
-1.049741989263286814e+04
-1.049597585016873927e+04
-1.049903234546253589e+04
-1.049496599312773287e+04
-1.049348192940620356e+04
-1.049358546534948437e+04
-1.049885153635235292e+04
-1.049843946543067977e+04
-1.049065830493571411e+04
-1.049594196877491777e+04
-1.049625466795647480e+04
-1.049309107304229110e+04
-1.049544352124916259e+04
-1.049780611007524203e+04
