1.361614067065972655e+00 -9.697167533356185753e-01 -8.174668228759796040e-02 3.304507250148345232e+00 5.829580463794130640e-01 3.125489564697381262e-01 6.280742219566655127e-01 -2.192164719698926234e+00 4.773767235846033685e-01 6.583268501700864084e-01 8.732972995386080184e-01 3.040807711043141959e-01 -5.116490144772518622e-01 -1.196881944988632984e+00 -4.760551765607304309e-01 -2.589738514984351592e-01 1.013940241895966987e-01 5.118346481253522873e-01 -1.351109567998394489e-01 -7.010215607919235703e-01 3.781259709885873566e-01 -1.426735996325628475e-01 3.495738704047180456e-01 -1.035583788290835167e-01 4.824037444816391407e-01 -8.756560295769368063e-02 -3.647192106748072260e-01 -7.971211693559188127e-01 -7.181091123885373004e-03 3.814632628893404043e-01 1.449578191013355832e+00 -5.846050950632515342e-01 -6.938754366710044863e-01 -3.981774903072258232e-01 -1.709994431384150304e-01 -8.289200590093344090e-01 3.721424997162973702e-01 -2.537131687462835572e+00 -3.095978442635097805e-01 9.825820393240529693e-01 9.633049362769915414e-01 -7.152808989133228532e-03 -1.527405997865570075e+00 5.930871643857356101e-01 4.944560476511073999e-01 -2.447299399959915467e-01 -4.973305409831889068e-01 -3.929427242749198301e-01 1.407684121915320219e+00 7.306571242471159300e-01 1.310295876447890917e+00 1.106967896405247481e-01 -3.547705841102665736e-01 -1.416060776008273292e-01 -8.256326465098714346e-03 1.109747258920435575e+00 8.291108348637534764e-01 2.765457989302583797e-01 4.013553738121031222e-01 1.670713117316581231e-01 6.035695519661438135e-01 -1.046896642191692817e-01 6.326384442850297996e-01 -2.003933228966345570e-01 -1.317714023283062419e+00 -1.086167671846625105e+00 -2.967053045815868663e-04 -6.709339974013287522e-01 -3.934913976891113996e-01 -8.940013648390733314e-01 -9.016807357552282243e-01 8.414942961201377081e-01 -1.018239126378292836e+00 3.837170919187704032e-01 6.669400457536940330e-01 -1.282477054485049894e+00 2.195017101543837779e+00 -1.882618297498601934e-01 5.033320099775939749e-01 1.463271372219080435e-01 6.674470672967052209e-01 -4.938024732280169582e-01 -3.656581775485784336e-01 1.418056980501142927e+00 -1.704670705182532942e+00 -7.959981114959428783e-02 -1.576645708689685454e+00 2.181395911226573503e-01 1.466845205610487757e-01 -5.523449495030600953e-02 1.560986147787738920e+00 -7.552924062781292414e-02 1.297854822480738690e+00 -6.063484002607000961e-02 -2.228992172911272926e-02 1.100218236391490301e+00 -1.152237309730793413e+00 4.666289981581566160e-01 -2.099795781819054685e+00 8.284768008246734539e-01 8.731589741886385259e-01 1.140421033831347630e+00 2.126502858775820126e+00 -1.621358735291561937e+00 -6.588708955985913551e-01 -1.558151249444310382e+00 -5.091396177937889123e-01 -5.768866433790753590e-01 -8.586332697799370361e-01 -8.659064063969250380e-02 9.815443420889651341e-03 4.881028517445120674e-01 -5.268756016071745457e-02 -7.429937914260013043e-01 2.468168015862575171e+00 1.554876692460643861e+00 -1.671239679243602838e+00 -1.415960502985061487e+00 -9.589926820582371780e-01 6.261664634124753694e-03 1.210069133092609994e-01 -6.815068878129440511e-02 3.866460926378288421e-01 2.364818410610025345e-01 -3.138201098716890125e-01 2.624931775028656600e-01 6.671344211525360723e-01 1.448261271975169462e-01 -1.044445352439629771e+00 -2.167044527612071558e+00 8.860643693863579085e-01 5.301337035306215029e-01 1.763828189333277452e-02 7.157010171695502576e-01 7.668469438759598078e-02 -1.268093789191372944e-01 -2.874950988443931155e-01 5.702387990504258486e-01 4.335522702345760981e-01 3.410882015378110532e-01 3.437204969522878600e-02 9.043284577886608888e-01 4.161021930925030282e-02 -1.077929857324273072e-01 2.066488168831770444e-01 4.906626420498970131e-01 -5.739267894221054822e-02 -1.257176885177045400e-01 3.085940855901246338e-01 -7.406278622988263782e-01 -1.260891615021581647e+00 -8.247810971435158844e-01 -1.445886601097253088e+00 4.164318085175234829e-01 -2.028014181156216900e-01 4.280331401928531010e-01 -2.894393670534450291e-01 -1.935696665339530886e+00 -7.583823580549590160e-01 -2.330951325575280730e+00 -1.995009444121096154e+00 1.808784956514654096e+00 -2.143369295500735516e-01 4.438161140464452203e-01 5.662098803998250052e-01 -6.786426788934994681e-02 1.189712680939280176e+00 7.768439071798950435e-01 3.311118070591500540e-01 1.027248786069062447e+00 -4.354430594979148417e-01 -1.133658518301793761e+00 -6.241291212690572854e-01 9.634849134981414431e-02 -6.461758166393015701e-01 7.491577541400731288e-01 -6.189334360047724637e-01 -1.830570942024546843e+00 1.202116196800306902e+00 -6.577339537815551918e-01 6.658622393093215353e-01 1.152502647576831851e+00 3.744780898261926283e-01 1.776863682350856843e-01 1.258640357095310858e+00 -1.203303018018633486e+00 5.475920082028044034e-01 8.595614380204394944e-01 8.689752751278486675e-01 3.007527351749346156e-01 3.476491425796766205e-02 -2.089021316919751348e-01
7.917732747846042418e-01 2.706070648529398937e-01 -3.583850409315906260e-01 5.173800034193000164e-01 -1.917842410780818407e-01 -4.033947728380487541e-01 6.541488075362469345e-01 1.551403646313080642e-01 6.688210648250275669e-01 -2.101455686018689928e+00 1.633280940641170353e+00 -2.461075370687369479e-01 1.462253215368003179e-01 -1.412191779974180328e+00 -7.268344080698897480e-01 -1.233848751992213000e+00 4.070292842640150788e-01 -1.069739865320683991e+00 7.634278908947415010e-01 -1.919717773425201557e+00 -5.025761056487639822e-01 -5.600289484049018052e-01 -1.627323180400472857e-01 6.070544251882399323e-01 -5.654472912027807413e-02 -9.090803706476530133e-02 -1.293732315675139466e+00 2.771664632329099431e-01 -5.883763891772919585e-01 -2.408748279189583674e-01 2.688510013951476707e-01 -4.001704552101146284e+00 2.849554659877769236e+00 7.921311723443769104e-01 -6.445292821760948421e-01 1.383308521303394878e+00 -5.358549222806643364e-01 4.612559067758811165e-03 -7.336899975338095903e-03 -1.273669997723232195e+00 9.076570079386723222e-01 -7.982493694222133618e-01 -1.039239382762707997e+00 -9.094058723076186013e-01 1.218841737072093201e+00 -1.450852943959729524e-01 -2.418626457527560392e-01 -4.647577492788284442e-02 1.061479939311162357e-01 6.809155340863082273e-02 -4.979224089304565837e-01 -9.364497637782507322e-01 2.568712033347712032e-01 3.958213313720563287e-01 1.724075334946294946e+00 -3.390734851021945939e-01 1.598667721469600567e+00 2.001408405663926970e-01 3.985556481598936163e+00 -2.756094545817096453e+00 -3.698043385032427910e-01 3.055324159480469759e-01 -3.488421344455852613e-02 8.267438772953147330e-01 1.072737771604411305e+00 3.460540301796556917e-01 1.611834854968935415e-01 5.977454890897296313e-02 3.807598090649597783e-02 -1.378817832525386144e+00 -1.733600757930817249e+00 5.974858076706417442e-01 8.310792714425025984e-01 -8.387838391696186280e-01 4.497327366365938550e-01 -2.343761075735474875e-01 3.557105794253014874e-01 1.226364784916163658e-01 -7.131365988784784671e-01 -2.595430937379010761e-01 3.535637082872977732e-01 1.029752526325574957e-01 -6.987322505388954275e-01 -9.795784766133752708e-01 -6.561187867768917270e-01 -1.962031446558832215e+00 -1.802282636624820134e+00 -3.215318766876509166e-02 6.379071488790382105e-01 1.456026003516212863e-01 -1.265594676920547057e+00 2.211968384673009602e+00 -6.195823824421761161e-01 -2.630171683267280569e-01 5.710240139552719141e-01 4.838867567839150730e-01 6.852061910385244259e-01 -6.097062609867273109e-01 5.277065821482557206e-01 1.750612719094548145e-02 3.176711081836673389e-01 -2.613886315856364315e-02 -2.225124719539075091e+00 8.486974987311930452e-01 -5.415581433085923102e-01 1.337606134205825414e-01 -1.125306032578537785e+00 4.051179261754020433e-01 7.371856693891746248e-01 1.394587436642550138e+00 2.774611116549641210e-01 3.709572211598665126e-01 -6.167834795429776307e-01 -3.635097637486791600e-01 1.022891280434704786e+00 1.531779958560147259e+00 3.812431764589055416e-02 5.862063781108547422e-01 8.075840165523165970e-01 5.912801930853893717e-01 -1.101787123539286428e+00 5.482306702275708821e-01 -6.644707582795159051e-02 3.843007323359282634e-01 -2.031994248846791529e-01 -1.646565316444568439e-01 2.435729435743129168e-01 -1.883127375924140701e-01 3.221078037953310769e-02 2.909887138172307375e-01 1.762240276022102314e+00 6.149631385062032107e-01 -4.477036220232853969e-01 1.168036738644604861e-01 3.902240397942909333e-01 -3.698027958413472316e-01 3.512373741487759271e-01 -9.441810709782233468e-02 1.483569203220378441e+00 -3.072960384491275398e+00 9.875812923069685056e-02 8.797960198840188983e-01 1.267929238589178720e+00 -7.972630942503114992e-01 -4.620452354457818545e-01 -4.496921132066771243e-01 -6.792746560500519948e-01 -3.360997471881645854e-02 1.290844452606629611e+00 9.895697834903599555e-01 -7.211671824861919378e-01 9.938367862935109098e-01 7.481036018447659308e-02 -7.469095815375936809e-01 -1.589995904733960963e-01 -7.977459474236253678e-01 7.939556271462061554e-01 2.258534148211467363e-01 -5.724314358246648249e-01 1.016831190288267850e+00 -1.900894212975437814e+00 -3.822520773386093307e-01 -8.705847857055615258e-01 -9.840948764229769108e-02 -2.391408759483359681e-01 1.106936528946704135e+00 2.858598772350873229e-01 -9.321282535881230125e-01 5.586235834180361404e-02 -4.354590003375024554e-01 -3.219458242962960348e-01 3.339693311103803519e-01 -3.121566061276310200e-01 1.003614691608274989e-01 -9.183486833162465279e-01 3.626088492016654174e-01 -4.757327602245560727e-01 7.035628391545617477e-01 7.297402688605146848e-01 1.813973442690093085e+00 3.805793176231778707e-01 -7.409358804573089596e-01 -4.480836310702278613e-01 7.842584544706435734e-01 4.850992890338343133e-01 -3.812277498399497394e-02 -2.222826667535305334e-01 -3.863966956313780732e-01 -1.096986873940899825e-02 7.394883493786309492e-01 6.833272288497183045e-02 2.122386008397171953e+00
-7.550836327015952865e-01 3.545338883534227659e+00 -3.901094200154500591e+00 5.262328258173531309e-02 5.788375964563415854e-01 -1.183032440710823696e+00 -1.000380243833893373e-01 3.815717634426622484e-01 -2.333286401464543802e-01 -1.019648090909581528e+00 -6.747808819482523091e-02 8.959096376038953036e-01 2.177156676337542951e+00 -1.195506919019046821e+00 -2.677000727769249799e+00 -1.069317175961297384e+00 -1.098483255979604278e+00 -9.387467873407567831e-01 8.847474503481717045e-02 -2.437748780164432638e+00 4.248943374559969732e-01 -9.660457322447903172e-02 -4.412090154429293420e-01 4.321602749841387259e-01 5.363321190270278586e-03 -2.008679485398387199e-01 2.500819483323609704e-01 2.735653761480142387e-01 4.571472839273423017e-02 -5.033314957569621217e-01 5.676080462978446706e-01 1.883996408791979438e-01 -5.689337070867724055e-02 2.236155266313043510e-01 3.293475160712480698e-01 -1.070849039223599891e-01 9.335876117413337560e-01 -7.248865403164148069e-02 -3.206263341549505097e-01 -6.970708036773649585e-01 -2.962713023682994051e-01 -7.457962938696228727e-01 3.175759773667737873e-01 8.246741392520896552e-01 -1.593672582251739744e-01 4.374557190510038329e-01 4.420471950728565580e-01 3.554020470461871639e-01 -4.017348686384137474e-02 -3.230657968324809337e-01 -3.220358129068710135e-02 -1.151090597721751818e+00 3.276154667169635992e+00 1.498078966789492039e+00 8.643503747649252666e-01 -3.719861766442127404e-01 1.376501782799501583e-01 9.356568355639270917e-01 -7.247317599062258475e-01 1.433946398025529589e+00 2.995468877932295215e-01 -7.590055934607699006e-01 1.353739292309712017e+00 3.867093417755472218e-01 1.364531754931130436e+00 -3.956315839589009675e-01 6.000093454214808553e+00 -1.564495189379532247e+00 -3.657532055213456257e+00 -1.414775224428630601e-02 1.767227187709853320e-01 -1.458360565184844415e-01 -1.736296302483012699e+00 -2.785897230977642636e+00 -9.669199073189473914e-01 8.679889999559464719e-01 1.985349295331027275e-01 -6.677792538248850107e-01 -4.013132077202908876e-01 -5.842307424432595653e-01 -1.701428029878041759e+00 1.837783400606975426e-01 2.663683441845413058e-01 -3.765318870298301479e-01 -3.865915852508519102e-01 1.114599959023271580e+00 -4.322142681504836936e-01 -6.418800174807667291e-01 -3.298283123620345814e-01 1.772878472453963405e-01 -1.093823388613714531e+00 -7.847053121997275005e-01 -2.482178985418787565e-01 -2.077851930575181694e+00 -1.413191939103142447e+00 3.926161941736905914e-01 4.977892257868055670e-01 1.342126133559849444e-01 5.633991504260937866e-01 2.545422980930900914e-01 4.403764922399526216e-01 9.605332870712814108e-02 8.429762799811499896e-01 8.720204897097066921e-02 7.028161907971051114e-01 -9.745596832464494819e-01 1.133486254390121545e-01 1.272004951317278643e+00 -5.167747657356041024e-01 -7.122588242598982822e-01 -4.507282677798692960e-01 -9.824570837105117693e-01 3.329758568496323234e-01 -3.742991410463062940e-01 2.321795113004431865e+00 1.119805928700193576e+00 5.671416481847501023e-01 -8.659886816980220947e-02 1.527105693016565624e+00 -5.338535755814762807e-01 -4.289741639491516656e-01 2.143328157850186988e-01 -4.352471414371772984e-01 -2.471946509065461317e+00 4.682235963375457055e-02 2.039594944006272392e+00 6.981234133107765416e-01 6.937947040318028780e-01 -1.092430879142645278e-01 -1.926479774734123351e+00 -8.382197391364712979e-01 -4.891019824322105913e-01 -1.999582922420833908e-01 5.964547953037681316e-02 -6.737956352176138752e-01 -5.878359432932100948e-01 1.131748702875076340e+00 1.296545102531398319e+00 -3.215241633781731889e-01 -8.832330705873523424e-01 6.671971560696225989e-01 -1.142315422639109262e-01 -6.030851561309344966e-01 -3.236016147308760638e-01 2.010714256438645542e+00 2.640148077745942068e+00 6.091920403548702900e-01 -6.879469870063231740e-01 -5.766804409057006975e-01 -8.273557998472248487e-01 -2.195156455335071088e-01 1.538686970087252748e+00 -1.975121446963388431e-03 1.241556405043120259e+00 -1.312908117257725361e-02 -3.572702106017242585e-01 3.709505362916524218e-01 -2.993879936179856815e-01 -1.097528348266245235e+00 -5.078329831682398821e-01 -9.415302636209995635e-01 7.570973206959479285e-01 -1.382957308611836300e+00 5.766372463726245901e-01 1.052422971322261924e+00 4.531130688042333432e+00 5.643530296981887906e-01 -1.425938954346249732e-01 -5.802393618987841117e-01 6.478120666898711244e-01 -6.267583313597429040e-01 9.018144331195111774e-02 -5.682364239099740866e-01 1.350889481567959516e+00 -3.364607300717282978e+00 2.030234071623943759e+00 3.298222959806418775e+00 3.003536999646134742e-01 1.692438939012546328e-01 -3.958059047531005403e-02 3.112978576724296231e-01 -1.366966589622974126e+00 1.072515114070817233e-01 2.355472450626021619e+00 -9.171083831522071073e-01 -1.127626196069477560e+00 6.226353103335122707e-01 -4.255499687616148830e-01 -1.153710037620432338e+00 -4.429935667237264951e+00 -3.205051323520217821e+00 6.485178345070949923e+00
4.374202378274057446e-01 2.653707561587383967e-01 -4.118403324956708134e-01 1.371133833623544573e+00 -2.841644918118541585e-01 -4.757327602245560727e-01 3.193680362687960628e-01 -1.062390109829549623e+00 -7.561614391459677842e-01 -1.893826764611192814e+00 1.147397979364385812e+00 -1.248998206027357005e+00 -2.067088264309147494e+00 -4.731035501338702598e-02 -2.419022407414090359e-01 -3.124867357732833417e-01 -5.692674362768477270e-01 -1.792933077096393324e-01 5.949332164541026868e-01 -2.913013599613998861e-01 1.405133587581308685e-01 -1.798363246968804896e-01 -1.283043211400724637e+00 -1.105872606459391699e-01 3.175826622349879336e-01 -1.387756529768959357e+00 -9.595922633149828185e-01 -8.690143558958697279e-01 2.033608901630822863e-01 5.278917015757241815e-01 -4.996054530585251063e-01 -2.403775765679524654e-02 -8.534334707505975004e-01 7.546151777059733057e-01 -5.992763239107684603e-01 3.199131101385646048e-01 -8.934310941583436527e-01 1.837099487166605483e-01 -7.819650304525606332e-02 -9.298296873637216242e-01 8.122587963165303071e-01 1.267291605005675947e-01 1.654350616810885688e-01 -4.469297199723403641e-02 -3.001151015914317322e-01 5.709612790381851655e-01 -6.040338931967108582e-01 -3.535554807571880676e-01 -2.831977570239627151e-01 -1.044447409322157183e+00 -6.387530418184433900e-01 -2.432870369030003532e-01 -1.475540676495192272e-01 7.404504561808357144e-01 4.015060404572373121e-01 1.173139349974523737e+00 2.392745733126188379e-01 4.407852976422790836e-01 1.288384935324456693e-01 -2.598305430711092198e-02 1.400127135509547260e+00 -8.925944571903120239e-02 -1.562688732299817973e+00 -6.493495863791239886e-01 -6.677154904665347779e-01 -2.716586460450878260e-01 -7.707791890477716512e-01 -1.857027593533597809e+00 -9.779052026773120687e-01 -3.932234887399138623e-01 5.599204478515799055e-01 1.803752279190668217e-01 1.750988100155803917e-01 6.234560064619562025e-01 -1.116319512816202009e+00 -8.052597392963223299e-01 -3.112834594947376174e-02 6.548692306414789499e-01 2.404752784880053451e-01 1.988951925077818705e+00 5.896557701093526616e-01 -8.688858007379054449e-01 6.906245338364034314e-01 1.228338363701231506e+00 -4.104647923054528524e-01 7.870558147079466382e-02 -6.717932600771620022e-02 9.824262304726003592e-01 6.555685707008046537e-01 9.471111001385454919e-01 2.016665331811129114e-01 4.396149314841721334e-01 7.166847212382929100e-02 1.584533853182374274e+00 -6.320188084236417758e-01 -9.454604519102839388e-01 6.556133078957762095e-01 5.716493062436101003e-01 -5.615145318103371697e-01 1.829195916054960624e-01 1.553049152335023511e-02 -7.443132815673467739e-01 3.574615006767751235e-01 -1.363193752847037921e+00 -4.952587460574364164e-01 -1.808055277438048725e+00 -4.827297603622364430e-02 2.408403751366239298e-01 4.205676850595507221e-01 -3.249689273909843190e-01 -5.998383670613883362e-02 -1.555620255494309379e-01 -3.770363374696820147e-01 -5.018597963085869029e-01 4.619161660671857739e-01 -3.279796891905080169e-01 -3.703432417254290954e-01 -1.439771489343207589e-01 1.139482066957576423e-01 1.794062305603951302e+00 -1.644853475961115752e+00 -5.662659304486973300e-01 8.015691778214832919e-01 1.584506085268253983e+00 3.502597893055523048e+00 -9.488018575760918116e-01 5.945938308370770642e-01 -6.356692606891958808e-02 4.973953327828030124e-01 -1.041563660018702153e+00 1.434048213710637232e-01 5.627836283297605879e-01 -5.894151148536433960e-01 2.181878250179255296e+00 4.206952117762512988e-01 1.306120404917210679e-03 -4.197788706102818096e-02 4.668094895999385097e-01 -1.646992119569009871e-01 -2.753270960327568462e-01 -3.310531859071183525e-01 -1.204834367060304001e-01 -7.586492385628929025e-01 2.444119459572511310e+00 6.747443722833903479e-01 1.338311644912733245e+00 2.933057919843791161e-01 1.015600146095601897e+00 -7.221930526467469358e-01 7.774157205225201706e-01 6.892150550844829138e-02 -3.440058894029685566e-01 -1.155932499191318907e+00 3.009131720120740150e-01 -1.767710555103798875e-01 3.425341899545933377e-01 8.082190790326602148e-01 8.452758746468153062e-02 -7.165823913325534145e-01 1.756639384899914280e-01 1.284281968902868609e+00 -8.157272144784067924e-01 -3.930075160745338247e-01 -7.000486553564497783e-01 -8.733610628969583622e-01 -1.319847524684637952e+00 -5.422682820011870408e-01 1.519694231049608213e+00 4.556457596823194067e-01 2.853389717350159893e-01 7.670320633034284630e-02 -2.926239354265365300e-01 1.884536340455429171e+00 1.282946537921935359e+00 1.183062265507471428e-01 2.911774327891222258e-01 -2.582575421582581354e-01 5.849074567947835090e-01 -8.380757573595511989e-01 -7.151112061048101043e-02 -5.746796084271443839e-01 1.023532513562630530e+00 -5.174910750757811401e-02 7.254598963209354379e-01 -3.077599683031890798e+00 2.151853935926378636e+00 2.017588872065944283e+00 -7.792854267399529355e-01 -1.132442386507451770e-01 -8.438088031841267656e-01 3.230858514371233725e-01 2.056599706081156664e-01
-6.486584738499080738e-02 -1.290345144373096442e+00 4.334391416955675203e-01 3.110217211931223247e-01 -2.923652824487123214e-02 5.537122621631683783e-01 5.882246940908940624e-01 -4.375390227933647624e-01 3.578975597725900324e-03 -7.283647286702966683e-01 2.075574447396686673e-01 -3.408665724454805479e-02 -1.542426382522118056e+00 -7.344818973068695245e-01 -8.078154158366523951e-01 -7.237531980438015600e-01 -4.860871068676320128e-01 -8.726272700552981654e-01 -5.578753923986840002e-01 2.902348663709280463e-01 -3.784247331756963595e-01 7.589330883516780257e-02 -1.568028399341022949e-01 -9.704423186471689000e-02 -4.902476659999883274e-02 5.889034653249456408e-01 -4.249534728286605278e-01 2.256136337405117320e+00 -3.675514350709501166e+00 -1.998285029546026381e+00 -3.465569379576119990e-01 6.646815887385774113e-01 1.211503808655491482e-01 5.632227727493667180e-01 -4.826958218005339418e-01 -2.395831056917331614e-01 -7.307383711069494192e-02 -4.069428951978631970e-01 -4.671802426755075621e-01 1.810186207736464992e+00 1.345707680260735062e+00 6.129093413025656911e-01 -1.337844218358375192e+00 -1.890473531870852542e+00 9.854339069483328828e-01 3.323701049453045564e-01 -8.608048235082699229e-01 2.335466696943618303e-01 1.534038415575263992e-01 1.095442155162800857e+00 6.102631619310286970e-01 1.234891591433619373e+00 -2.813558187206502970e-01 2.245421522099109168e-01 -4.608722981845156386e-01 -4.271857045915524176e-01 7.652101796047584559e-01 -2.889313170691701904e-01 3.170360457033237767e-01 1.405102734343397497e-01 2.221515404924069570e-01 2.012299598646661442e-02 5.266082068786088338e-02 1.482559788120042521e-01 1.720308668817941200e+00 -1.137821134316677751e-01 1.222831574954672984e+00 -2.793421307262976550e-01 -1.411957295366053355e-01 4.058825722549736503e-01 -2.331186838624671243e+00 9.836238503241957476e-01 5.241512606995951673e-01 2.411766754298584892e-01 -1.065002350639383949e-01 -7.864855440272169318e-01 -1.828814364346122545e+00 -9.333613546633166003e-01 -7.642028213869502817e-01 1.424026053595741081e-01 7.806491398556381078e-01 7.592673317623850615e-02 7.120253680930350715e-01 -1.252626546805741148e+00 8.562781392860313590e-01 -6.324245285021771190e-01 -3.769154956211955287e-01 -1.098911087545309417e+00 3.098559830207021193e+00 -8.116016223490167825e-01 5.746616107050294131e-01 3.719290981540765428e-01 6.874970439534481281e-01 -1.595401392016043696e+00 -3.560206544663113704e-01 5.101377200402236189e-01 1.893802596241495606e-01 -8.810661448447062449e-01 2.875778883661220808e-01 -4.364190502571798497e-02 1.649733429757440417e+00 1.303481938855151734e+00 -8.816996646631543033e-01 4.201244268748898225e-01 -9.310211365677346640e-01 -3.567889000903059493e-01 -4.864043809974877841e-01 1.286047802552666042e+00 -2.373832698286481857e-01 -5.230960799630244296e-01 3.065346319595366742e-01 9.073618452959861802e-01 -5.627214076333060255e-01 1.793066774460675972e-01 6.467856823086842732e-01 -4.988855441739250551e-01 1.205726539856576185e+00 -2.428623420831494961e+00 2.028129366577752890e+00 -3.391837340056648387e+00 -1.549259860498868102e+00 -2.389146188703188844e+00 -4.021107639203013173e-01 6.303738166223307182e-01 -3.426874277028867932e-01 -1.313223848725685761e+00 -1.598251202757796197e+00 -2.137964836659916879e-01 2.471359783324512394e-01 5.013702582670589297e-02 4.271229696744658910e-01 -2.109728981764639744e-01 1.033020398441027332e+00 2.056351337515969657e+00 -1.119437232507151991e+00 -7.160517156404767602e-01 1.124189659586776191e+00 -2.804204513913021724e-01 -1.057998665633489155e-01 -1.775403295756382283e-01 2.400690441888382043e-01 4.778405505945385046e-01 -2.062832060139265511e-01 -3.024393788474261657e-01 -4.088084876502409704e-01 -1.112299335916342669e+00 2.692731765339024252e-01 1.726568276569538707e+00 -1.094662596684905509e+00 -4.347889708541926024e-01 -3.177554403672919747e-01 -2.744719471219784213e-01 4.533893595497301421e-01 6.228188870990852138e-02 1.234772806467660411e+00 1.876548437160160177e+00 1.262919701193626176e+00 -1.250481732550265124e-01 4.728140439181346966e-01 9.704356337789548093e-01 2.291687495009194553e+00 -1.469657992466746332e-01 7.451185510768351117e-01 8.584121549082386338e-01 3.711644520745049913e-02 -4.716251658172809225e-01 4.845855826226090346e-01 -1.536803379912760059e+00 2.612406903098511091e+00 9.910630802052732280e-01 -4.990356965984273779e-02 1.697471102115900798e+00 3.610252553437980794e+00 4.603873881286744130e+00 -2.822305080154394186e-01 -2.037855849829331323e+00 -1.101228165712457852e+00 -9.821670632741442697e-01 -6.507415816295613054e-01 -1.308907480741876572e-01 -2.809366260615603572e+00 -1.435092081593307478e+00 -8.910415108821033436e-03 -1.614941776026616260e+00 2.385058134679923780e-02 1.363651409209390986e-01 1.584454663205068448e+00 9.381086395366219355e-01 -2.162508587418459360e-01 -7.289493975287183458e-01 6.456312569901648812e-01 2.866111535782306027e-02
9.848651789294987635e-01 2.876296189616868837e+00 -3.590576415180598002e-01 -1.544975888414866105e+00 3.428591773939271281e-01 -2.755296989617085981e-02 8.590826986121803677e-02 1.187710820019460128e-01 3.350394242452751081e-01 8.625747709231222915e-01 -3.695811667490168095e-01 1.123259434463746320e+00 4.727744489294816860e-02 -1.779522203017558091e-01 -4.459583571987621453e-01 3.563214735359477858e-01 8.311795444657147369e-01 4.905160891698177594e-01 -5.582070647062318258e-01 -2.614256554711301139e-01 -1.235534881444072530e+00 4.471456926377204155e-02 8.802130528164552326e-01 9.585946752891798539e-01 3.242490185063842678e-01 5.195896094743902571e-01 1.373159348692429838e-01 -9.525885783090881631e-02 6.949136481267240706e-01 2.589882496761271580e-01 1.346594196630056528e+00 7.319437042680225769e-01 -9.311178100465238305e-01 -5.462102973650041493e-01 -2.722021772529608641e-01 4.495008231316262037e-01 -3.350656494974998401e-01 -5.317833233176193497e-01 -4.077070270568029509e-01 -3.177780660750936792e-01 -1.789513509894543053e-01 1.233442003472413839e+00 -2.007840791547828019e+00 2.168645296439042802e+00 -1.180509160070300378e+00 7.527135898093655353e-01 1.029695962056070557e-01 7.082895552025927355e-01 3.640522665152884363e-01 4.287314518109151124e-02 -5.016222263766688672e-01 2.422221373964873248e+00 -1.737968033757180120e+00 1.660049724073758837e+00 3.991776494361879979e-01 8.976399900300946477e-01 -1.005935369319846506e+00 -2.228591080818424219e-01 3.211672942596642821e-01 1.167188788822672629e+00 -1.566789127618246902e-01 -3.010864643650099093e-01 -1.551070431343637201e+00 3.202298700477886340e-01 -1.378882624325000084e+00 -4.728412976116231486e-02 -8.096969491286178100e-02 -1.271903135632170834e+00 -4.406089199655520150e-01 1.814384304974947071e+00 -2.501542477532001207e+00 -4.604158245296160246e+00 3.031690579240314820e-02 -1.377370815667340320e-01 -7.410119851108237787e-01 1.003918081781070698e-01 -8.760103275922864752e-01 -1.082038994393443865e+00 -1.888063893989969377e-01 -2.150547815521461625e-01 -3.981836609548081163e-01 1.597829027619041442e+00 1.806188142323775336e+00 4.205892823260886648e-01 -6.615715823571052256e-01 3.314722757220819327e-01 9.848816339897183969e-01 1.168890344893487754e+00 -4.958341589444846265e-01 -5.699539208203769913e-01 -1.325300834485483026e-01 -1.386592848479066609e+00 5.786581334558233980e-01 4.114166146950205549e-01 5.068883598675182345e-01 -8.376978051951361470e-01 -5.190465924871491277e-01 -1.334140287147107751e+00 2.742564372551670626e+00 -3.320108189898259621e+00 -2.455254393134745916e-01 4.846007521312488464e+00 -4.849043994143604208e-01 8.427176270033258643e-01 5.112870031524243686e-01 7.370128912568706392e-01 -4.414059619449305916e-01 -8.266580024497947043e-01 -4.281601526889217690e-01 -3.998034559451582037e-01 -3.464695204501962444e-01 1.355420279555253238e+00 -1.635103338560472075e+00 -1.641270900818966760e+00 1.101549039386736872e+00 2.003772792129205893e+00 1.067565740489192061e+00 -8.858134297180116912e-01 5.956392413816425924e-01 1.731051766258701330e-01 1.434454448009804539e-01 -1.816535804098637075e-01 -8.568787489840404836e-01 4.261300096343497157e-01 -4.356868000774151706e-01 -5.025318826744242795e-01 5.709268262558507834e-01 -6.124002628770270906e-01 4.171512031814916810e-02 -1.383524493968774749e+00 1.475800872134912067e+00 8.283955539648399924e-01 -1.311528977523084283e+00 -5.488230523954703566e-01 -8.442536040306833911e-01 1.086257660457200069e+00 -4.960707004351389560e-01 1.006215105343576610e+00 6.896829958594730137e-02 1.277825928869901873e+00 6.093771597823387925e-02 -1.877244691895694484e-01 1.717333902462647721e+00 1.406928217586490115e+00 -3.825559817320368095e-01 -7.801755426536977067e-01 -1.228212379646426378e+00 -4.474465117073567755e-01 -2.124367814712349478e+00 4.045240013456070649e-01 -2.945239806612487410e-01 7.030846139669345574e-01 -5.209718345328222533e-01 -1.320672848798768589e-02 -4.495332190314332288e-01 -4.836712983391669440e-01 -6.473086446912829084e-01 6.889589732098180264e-01 -4.284362891682291230e-01 9.275187798441555387e-01 1.085562434162929302e+00 9.447780811318094996e-01 6.841854630842880702e-01 -4.859410682081845012e-01 -4.599266464425302847e-01 -1.322311155731865417e+00 -1.601071188702900994e+00 -6.862171488007556830e-02 -2.198504031648461365e-01 7.002697702281482917e-01 -9.395309738043389203e-01 1.439298406361898819e-01 -2.252168096789075591e-01 5.013666587226358606e-01 -2.039183053280154423e-01 -2.809171885216761866e-01 3.612039984354316335e-02 -1.144098739790390118e+00 -2.966826788737851328e-01 -3.107101034902168823e-01 3.643412585103922297e-01 3.159057887545017040e-01 5.504685584174133783e-01 2.795704446868422788e-01 -6.246387139152277390e-01 2.891796856343571420e-01 1.396273566094409502e-01 2.559610328163839932e-01 -2.283931505218892988e-01 -1.417815296804170178e+00 4.582538867270989913e-01 1.363039486657480759e-01