

512 atoms
3 atom types
128 bonds
1 bond types

0 16.421037674 xlo xhi
0 16.421037674 ylo yhi
0 16.421037674 zlo zhi
0 0 0 xy xz yz

Masses

1 16
2 2
3 16

Atoms

       1        1 1  6 8.4960699081e+00 7.5073699951e+00 9.6371297836e+00
       2        2 1  6 4.0597701073e+00 6.8156299591e+00 1.2051420212e+01
       3        3 1  6 2.6408200264e+00 1.0598219871e+01 9.3506002426e+00
       4        4 1  6 1.1694219589e+01 1.4214019775e+01 1.3693120003e+01
       5        5 1  6 8.7306203842e+00 1.3607620239e+01 1.2758020401e+01
       6        6 1  6 1.0342249870e+01 2.8897099495e+00 1.3001319885e+01
       7        7 1  6 1.6010500193e+00 6.4406399727e+00 5.3241600990e+00
       8        8 1  6 3.1527600288e+00 1.2283720017e+01 1.5380720138e+01
       9        9 1  6 1.4798919678e+01 1.5740220070e+01 6.1582899094e+00
      10       10 1  6 9.2309398651e+00 1.5580719948e+01 8.5355997090e-01
      11       11 1  6 9.1436700821e+00 1.6327819824e+01 1.0490420342e+01
      12       12 1  6 4.6231899261e+00 4.7593097687e+00 1.5846320152e+01
      13       13 1  6 1.1337719917e+01 1.1849120140e+01 1.7001099586e+00
      14       14 1  6 1.0370820046e+01 9.8193197250e+00 1.3924719810e+01
      15       15 1  6 9.5739898682e+00 9.3357095718e+00 5.4412398338e+00
      16       16 1  6 5.6118898392e+00 7.8216400146e+00 4.7569899559e+00
      17       17 1  6 8.1148195267e+00 6.3689699173e+00 1.4318619728e+01
      18       18 1  6 5.1289701462e+00 1.3673819542e+01 6.8581700325e+00
      19       19 1  6 1.0273889542e+01 1.6011220932e+01 3.5431900024e+00
      20       20 1  6 9.8264398575e+00 3.6420900822e+00 6.4606800079e+00
      21       21 1  6 1.1179019928e+01 9.7553701401e+00 8.1035804749e+00
      22       22 1  6 9.3739500046e+00 7.7072300911e+00 1.2156920433e+01
      23       23 1  6 3.4909999371e+00 3.5429000850e-01 1.0146929741e+01
      24       24 1  6 3.9963800907e+00 1.5806999800e-01 1.5749620438e+01
      25       25 1  6 5.4874998330e-01 1.1597120285e+01 1.5405719757e+01
      26       26 1  6 1.5839019775e+01 3.2634301186e+00 5.8823900223e+00
      27       27 1  6 1.4367620468e+01 1.4510419846e+01 3.6194500923e+00
      28       28 1  6 1.5029319763e+01 4.1238398552e+00 1.0885919571e+01
      29       29 1  6 1.0278700590e+00 1.2713120461e+01 1.0780119896e+01
      30       30 1  6 6.3524799347e+00 7.2390997410e-01 3.3308401108e+00
      31       31 1  6 1.2130220413e+01 7.2178502083e+00 1.2014419556e+01
      32       32 1  6 5.8344697952e+00 3.0445299149e+00 1.3951720238e+01
      33       33 1  6 1.7648099661e+00 1.0562520027e+01 6.7235598564e+00
      34       34 1  6 2.0747799873e+00 8.8539199829e+00 1.1305419922e+01
      35       35 1  6 8.0390000340e-01 3.5488500595e+00 9.6619701385e+00
      36       36 1  6 6.5141301155e+00 7.8425202370e+00 1.5955419540e+01
      37       37 1  6 1.3925120354e+01 1.4959919929e+01 1.1965120316e+01
      38       38 1  6 8.1237401962e+00 9.8311595917e+00 7.9719200134e+00
      39       39 1  6 1.5912420273e+01 8.1848001480e+00 1.0240790367e+01
      40       40 1  6 3.1178801060e+00 1.4391320229e+01 1.1324919701e+01
      41       41 1  6 5.1615700722e+00 1.1410120010e+01 8.8125000000e+00
      42       42 1  6 1.1742119789e+01 9.6195096970e+00 3.2075099945e+00
      43       43 1  6 2.4253900051e+00 1.3426119804e+01 6.1721601486e+00
      44       44 1  6 1.1472120285e+01 5.3505101204e+00 4.8002500534e+00
      45       45 1  6 1.3761919975e+01 1.7784299850e+00 6.7494101524e+00
      46       46 1  6 2.5328700542e+00 1.4649620056e+01 1.3887319565e+01
      47       47 1  6 2.1921999750e-01 5.2320299149e+00 7.4821400642e+00
      48       48 1  6 1.0269989967e+01 2.8220400810e+00 7.4199998380e-01
      49       49 1  6 7.5452399254e+00 3.3903999329e+00 7.7205500603e+00
      50       50 1  6 8.7138998510e-01 5.8262997870e-01 9.4447698593e+00
      51       51 1  6 1.1744099855e+00 1.5949020386e+01 6.9449901581e+00
      52       52 1  6 1.3198619842e+01 9.5628995895e+00 5.7105498314e+00
      53       53 1  6 6.7880001068e+00 5.0305002930e-01 1.5319120407e+01
      54       54 1  6 6.0509200096e+00 1.0372619629e+01 1.3448100090e+00
      55       55 1  6 9.7995500565e+00 1.3804120064e+01 1.0197730064e+01
      56       56 1  6 1.1547519684e+01 1.7948499918e+00 5.4134202003e+00
      57       57 1  6 2.1266100407e+00 2.8618299961e+00 2.8285100460e+00
      58       58 1  6 3.4466700554e+00 1.1507419586e+01 1.6255700588e+00
      59       59 1  6 1.5572520256e+01 5.6202101707e+00 4.0818700790e+00
      60       60 1  6 7.9180498123e+00 6.5438399315e+00 1.5129300356e+00
      61       61 1  6 1.0336020470e+01 2.2085900307e+00 1.0415019989e+01
      62       62 1  6 7.6401200294e+00 1.6198020935e+01 1.2845120430e+01
      63       63 1  6 1.5935819626e+01 6.3507499695e+00 1.2157620430e+01
      64       64 1  6 7.7594199181e+00 4.3740999700e-01 7.9513401985e+00
      65       65 1  6 7.9136900902e+00 4.1400299072e+00 1.2954119682e+01
      66       66 1  6 1.2321920395e+01 7.5979700089e+00 1.5551420212e+01
      67       67 1  6 4.3533902168e+00 6.3721599579e+00 7.6649599075e+00
      68       68 1  6 7.2718601227e+00 4.8287901878e+00 4.5960597992e+00
      69       69 1  6 5.0663599968e+00 1.1232520104e+01 1.4095520020e+01
      70       70 1  6 7.7993898392e+00 1.1234820366e+01 3.3244199753e+00
      71       71 1  6 2.9732899666e+00 6.9290499687e+00 1.6317020416e+01
      72       72 1  6 4.6515598297e+00 2.9142398834e+00 3.4287199974e+00
      73       73 1  6 1.1702320099e+01 2.9646999836e+00 3.0991001129e+00
      74       74 1  6 5.0074200630e+00 1.6359720230e+01 7.8598198891e+00
      75       75 1  6 1.0431719780e+01 4.6139597893e+00 9.0203399658e+00
      76       76 1  6 1.1848919868e+01 1.5337519646e+01 1.6234619141e+01
      77       77 1  6 1.3410420418e+01 2.0997400284e+00 9.4832496643e+00
      78       78 1  6 1.6251020431e+01 1.2126300335e+00 1.3413220406e+01
      79       79 1  6 1.6055120468e+01 1.5006719589e+01 1.3628820419e+01
      80       80 1  6 9.0406103134e+00 1.2871720314e+01 9.0289002660e-01
      81       81 1  6 1.4765319824e+01 7.2231397629e+00 1.4444020271e+01
      82       82 1  6 1.4350720406e+01 1.5747619629e+01 9.5329999920e-01
      83       83 1  6 1.5393919945e+01 1.0530920029e+01 1.0076500177e+00
      84       84 1  6 4.4979600906e+00 2.7500700951e+00 1.1533820152e+01
      85       85 1  6 7.3879699707e+00 1.3108019829e+01 5.5275897980e+00
      86       86 1  6 7.7684597969e+00 1.9555100203e+00 1.1057100296e+00
      87       87 1  6 1.1727020264e+01 1.4331799746e+00 1.5136019707e+01
      88       88 1  6 7.2639000420e-01 1.0847220421e+01 1.2769020081e+01
      89       89 1  6 5.3962998390e+00 1.2726819992e+01 1.1805319786e+01
      90       90 1  6 1.3733420372e+01 8.3645095825e+00 1.3737399578e+00
      91       91 1  6 1.4374320030e+01 9.7617797852e+00 1.2146220207e+01
      92       92 1  6 8.8880002500e-01 3.5487198830e+00 1.4416020393e+01
      93       93 1  6 1.4642219543e+01 1.9025100470e+00 1.5868320465e+01
      94       94 1  6 4.3711099625e+00 8.5390195847e+00 1.4339819908e+01
      95       95 1  6 1.5293419838e+01 1.3746620178e+01 1.5926719666e+01
      96       96 1  6 1.5850919724e+01 1.2248820305e+01 3.2916700840e+00
      97       97 1  6 2.7166600227e+00 2.7059700489e+00 1.0255999860e-01
      98       98 1  6 1.4993220329e+01 7.3605000970e-01 1.1033320427e+01
      99       99 1  6 1.3668519974e+01 6.8897800446e+00 5.6276798248e+00
     100      100 1  6 3.3622899055e+00 7.7265000340e-01 5.6924500465e+00
     101      101 1  6 1.1762220383e+01 1.3709520340e+01 3.8691298962e+00
     102      102 1  6 1.2165019989e+01 6.9615201950e+00 9.1231498718e+00
     103      103 1  6 1.0004650116e+01 7.5758500099e+00 3.3191499710e+00
     104      104 1  6 6.6179699898e+00 3.8664200306e+00 1.0511619568e+01
     105      105 1  6 1.4655719757e+01 6.8960099220e+00 8.0900297165e+00
     106      106 1  6 8.0601100922e+00 1.5797120094e+01 5.2414698601e+00
     107      107 1  6 6.0947999954e+00 6.3980898857e+00 9.9862604141e+00
     108      108 1  6 4.5113998650e-01 5.9147200584e+00 1.5922619820e+01
     109      109 1  6 3.7371599674e+00 1.6143920898e+01 2.0300900936e+00
     110      110 1  6 1.2564620018e+01 1.1477720261e+01 1.3465620041e+01
     111      111 1  6 1.4317420006e+01 1.3356220245e+01 7.6144399643e+00
     112      112 1  6 1.0066490173e+01 5.6166300774e+00 1.6302320480e+01
     113      113 1  6 1.2119720459e+01 1.2075320244e+01 9.8997097015e+00
     114      114 1  6 9.2635898590e+00 1.2541020393e+01 7.4875102043e+00
     115      115 1  6 2.7872700691e+00 1.3628319740e+01 3.2878000736e+00
     116      116 1  6 4.7283701897e+00 3.3856899738e+00 6.1632699966e+00
     117      117 1  6 1.3272120476e+01 1.1820219994e+01 1.6092720032e+01
     118      118 1  6 1.4806119919e+01 5.9120202065e+00 1.4654799700e+00
     119      119 1  6 1.3160920143e+01 4.1334700584e+00 1.5967320442e+01
     120      120 1  6 1.1785019875e+01 1.3233220100e+01 6.6698698997e+00
     121      121 1  6 2.6090600491e+00 4.4231100082e+00 1.2107819557e+01
     122      122 1  6 8.1236295700e+00 1.1675419807e+01 1.4719220161e+01
     123      123 1  6 2.6272299290e+00 8.7129201889e+00 4.6780500412e+00
     124      124 1  6 1.4748519897e+01 1.3087220192e+01 1.0362170219e+01
     125      125 1  6 2.8109200001e+00 8.5564899445e+00 1.8962999582e+00
     126      126 1  6 1.2588219643e+01 4.6191601753e+00 1.3375519753e+01
     127      127 1  6 6.4855799675e+00 4.2895698547e+00 1.6029200554e+00
     128      128 1  6 1.5604319572e+01 1.1363820076e+01 6.3081698418e+00
     129        1 2  1 8.9833898544e+00 6.6978502274e+00 9.3566198349e+00
     130        2 2  1 4.8980598450e+00 6.6616702080e+00 1.1580619812e+01
     131        3 2  1 2.5167601109e+00 9.8685197830e+00 1.0053870201e+01
     132        4 2  1 1.1625419617e+01 1.4605520248e+01 1.4570719719e+01
     133        1 2  1 8.7812099457e+00 7.5310301781e+00 1.0652919769e+01
     134        2 2  1 3.6520099640e+00 5.9442501068e+00 1.1991120338e+01
     135        3 2  1 2.1983499527e+00 1.0503620148e+01 8.5153703690e+00
     136        4 2  1 1.0855019569e+01 1.4289420128e+01 1.3238619804e+01
     137        5 2  1 9.1278400421e+00 1.3341420174e+01 1.1896820068e+01
     138        6 2  1 1.0721520424e+01 2.2120599747e+00 1.3622420311e+01
     139        7 2  1 2.0169000626e+00 5.8068799973e+00 4.6991801262e+00
     140        8 2  1 3.1446700096e+00 1.3172120094e+01 1.4906220436e+01
     141        5 2  1 8.6417503357e+00 1.2844820023e+01 1.3426919937e+01
     142        6 2  1 1.0330559730e+01 2.4245500565e+00 1.2134420395e+01
     143        7 2  1 2.0318698883e+00 7.3054199219e+00 5.1022901535e+00
     144        8 2  1 3.9576599598e+00 1.1933119774e+01 1.4951519966e+01
     145        9 2  1 1.4631719589e+01 1.5565719604e+01 5.1605300903e+00
     146       68 2  1 7.4450201988e+00 4.5667200089e+00 3.6701600552e+00
     147       11 2  1 8.6056604385e+00 1.6310230255e+01 9.6991500854e+00
     148       12 2  1 3.9433300495e+00 4.0550398827e+00 1.6003820419e+01
     149        9 2  1 1.4719019890e+01 1.4945119858e+01 6.7024598122e+00
     150       10 2  1 8.9614000320e+00 1.4647820473e+01 9.9216997620e-01
     151       11 2  1 9.4715404510e+00 1.5370120049e+01 1.0521920204e+01
     152       12 2  1 5.2754101753e+00 4.6207900047e+00 1.6777999700e-01
     153       13 2  1 1.2066619873e+01 1.1748920441e+01 1.0094300508e+00
     154       14 2  1 1.0682120323e+01 9.0943899155e+00 1.4503820419e+01
     155       15 2  1 9.2523899078e+00 9.4730100632e+00 6.4063901901e+00
     156       16 2  1 6.3058099747e+00 8.4648799896e+00 4.8531198502e+00
     157       13 2  1 1.1386320114e+01 1.1041720390e+01 2.2529900074e+00
     158       14 2  1 9.9100103378e+00 9.3395099640e+00 1.3211020470e+01
     159       15 2  1 1.0520219803e+01 9.6425199509e+00 5.5945601463e+00
     160       16 2  1 5.9983100891e+00 7.0285601616e+00 4.3523797989e+00
     161       17 2  1 8.6656799316e+00 5.7231001854e+00 1.4888019562e+01
     162       18 2  1 5.0128102303e+00 1.4644319534e+01 7.1735601425e+00
     163       19 2  1 9.7614402771e+00 1.5982419968e+01 2.6491699219e+00
     164       20 2  1 1.0326459885e+01 2.8723800182e+00 6.1583700180e+00
     165       17 2  1 7.7509999275e+00 5.6568298340e+00 1.3748020172e+01
     166       18 2  1 5.0189099312e+00 1.3044019699e+01 7.6463098526e+00
     167       19 2  1 9.5978298187e+00 1.5936019897e+01 4.2281298637e+00
     168       20 2  1 8.9388103485e+00 3.3201599121e+00 6.8107600212e+00
     169       21 2  1 1.1794819832e+01 9.5571203232e+00 7.3678297997e+00
     170       22 2  1 8.9509897232e+00 7.3347401619e+00 1.2953720093e+01
     171       23 2  1 4.1151099205e+00 1.5550999340e-01 9.3323602676e+00
     172       24 2  1 3.8847401142e+00 1.6128919601e+01 1.6872000690e-01
     173       21 2  1 1.1296219826e+01 8.9417800903e+00 8.6366195679e+00
     174       22 2  1 1.0346710205e+01 7.4265298843e+00 1.2019120216e+01
     175       23 2  1 3.7601399422e+00 1.1172599792e+00 1.0668919563e+01
     176       24 2  1 3.4846899509e+00 1.5978619575e+01 1.5130120277e+01
     177       25 2  1 1.4922000170e+00 1.1914620400e+01 1.5522919655e+01
     178       26 2  1 1.6305919647e+01 3.9318199158e+00 6.4722700119e+00
     179       27 2  1 1.4441320419e+01 1.4880920410e+01 2.7076001167e+00
     180       10 2  1 8.5916700363e+00 1.6022619247e+01 2.4647000430e-01
     181       25 2  1 7.3871999980e-01 1.1288020134e+01 1.4508020401e+01
     182       26 2  1 1.5428219795e+01 3.7610800266e+00 5.1725101471e+00
     183       91 2  1 1.5182820320e+01 1.0374320030e+01 1.2291319847e+01
     184       28 2  1 1.5872119904e+01 3.7566399574e+00 1.0512319565e+01
     185       29 2  1 1.6182099581e+00 1.2163519859e+01 1.0220399857e+01
     186       30 2  1 5.6696801186e+00 1.4778699875e+00 3.4357900620e+00
     187       31 2  1 1.2433919907e+01 7.0990200043e+00 1.1087019920e+01
     188       32 2  1 5.4505701065e+00 3.7250699997e+00 1.4646719933e+01
     189       29 2  1 1.5755000114e+00 1.3518320084e+01 1.0882019997e+01
     190       30 2  1 6.7958998680e+00 1.0680600405e+00 2.5091300011e+00
     191       31 2  1 1.2772419929e+01 7.7946300507e+00 1.2458120346e+01
     192       32 2  1 6.1269598007e+00 2.2396099567e+00 1.4419819832e+01
     193      125 2  1 3.0232501030e+00 9.4820899963e+00 1.6625900269e+00
     194       34 2  1 2.7110199928e+00 8.1157398224e+00 1.1506420136e+01
     195       35 2  1 6.8174999950e-01 2.6035299301e+00 9.5699195862e+00
     196       36 2  1 5.9391999245e+00 8.2750902176e+00 1.5360919952e+01
     197       33 2  1 1.9904099703e+00 1.0008769989e+01 5.9505600929e+00
     198       34 2  1 1.2736799717e+00 8.3656702042e+00 1.0950119972e+01
     199       84 2  1 5.0100698471e+00 2.7086699009e+00 1.2365019798e+01
     200       36 2  1 6.9829897881e+00 7.1937699318e+00 1.5381119728e+01
     201       37 2  1 1.4031620026e+01 1.5911520004e+01 1.1621919632e+01
     202       38 2  1 8.2020797729e+00 9.0278196335e+00 8.5738897324e+00
     203       39 2  1 1.5381420136e+01 8.8655700684e+00 1.0669719696e+01
     204       40 2  1 3.2877900600e+00 1.5282320023e+01 1.0905819893e+01
     205       37 2  1 1.3238719940e+01 1.4824319839e+01 1.2608920097e+01
     206       38 2  1 7.3083300591e+00 1.0290280342e+01 8.3123397827e+00
     207       39 2  1 1.5842820167e+01 7.3599700928e+00 1.0882220268e+01
     208       40 2  1 3.9607300758e+00 1.3851119995e+01 1.1463520050e+01
     209       41 2  1 5.3205699921e+00 1.1845919609e+01 9.7145500183e+00
     210       42 2  1 1.2454819679e+01 9.1883096695e+00 2.7001800537e+00
     211       43 2  1 3.3241400719e+00 1.3519720078e+01 6.5152602196e+00
     212       44 2  1 1.1767720222e+01 4.6335101128e+00 4.1996397972e+00
     213       41 2  1 4.1373000145e+00 1.1154219627e+01 8.9612703323e+00
     214       42 2  1 1.1002719879e+01 8.9355802536e+00 3.1770300865e+00
     215       43 2  1 2.2577600479e+00 1.2391619682e+01 6.2320799828e+00
     216       44 2  1 1.0875419617e+01 4.9362201691e+00 5.4710001945e+00
     217       45 2  1 1.4054019928e+01 8.4421998260e-01 6.6780400276e+00
     218       46 2  1 2.8359398842e+00 1.4530520439e+01 1.2932620049e+01
     219       47 2  1 7.3829001190e-01 5.5997800827e+00 6.7205901146e+00
     220       48 2  1 1.0802419663e+01 2.7474200726e+00 1.5978499651e+00
     221       67 2  1 3.5227699280e+00 6.8623600006e+00 7.8746500015e+00
     222       46 2  1 1.5763700008e+00 1.4882320404e+01 1.3684320450e+01
     223       47 2  1 1.5830120087e+01 5.7819399834e+00 7.5954799652e+00
     224       48 2  1 1.0861619949e+01 2.4902698994e+00 4.8030000200e-02
     225       49 2  1 7.3649501801e+00 3.7047998905e+00 8.6432199478e+00
     226       50 2  1 1.8013199568e+00 6.3723999260e-01 9.7321596146e+00
     227       51 2  1 2.7112999560e-01 1.5899319649e+01 6.4777598381e+00
     228       52 2  1 1.3923020363e+01 1.0171250343e+01 5.8901700974e+00
     229       49 2  1 6.7048702240e+00 3.5456199646e+00 7.2065601349e+00
     230       50 2  1 9.6384000780e-01 2.0401999350e-01 8.5252799988e+00
     231       51 2  1 1.4794100523e+00 1.5020719528e+01 6.7109599113e+00
     232       86 2  1 8.6926097870e+00 2.2595798969e+00 1.1261299849e+00
     233       53 2  1 7.2568001747e+00 1.6729999300e-02 1.4558620453e+01
     234       54 2  1 5.9468998909e+00 9.9700603485e+00 4.9887999890e-01
     235       55 2  1 9.4702997208e+00 1.3590519905e+01 9.3124103546e+00
     236       56 2  1 1.1317219734e+01 8.5253000260e-01 5.1829299927e+00
     237       45 2  1 1.4580120087e+01 2.3664000034e+00 6.5427999496e+00
     238       54 2  1 5.1660299301e+00 1.0864319801e+01 1.3880699873e+00
     239       55 2  1 1.0634619713e+01 1.3232119560e+01 1.0217060089e+01
     240       56 2  1 1.2400620461e+01 1.8054300547e+00 5.8815498352e+00
     241       57 2  1 2.0691499710e+00 2.7709600925e+00 1.8279900551e+00
     242       58 2  1 3.2105300426e+00 1.1787919998e+01 7.2491997480e-01
     243       59 2  1 3.1279999800e-02 6.0399599075e+00 4.3540101051e+00
     244       60 2  1 8.5852003098e+00 6.9994001389e+00 2.0702099800e+00
     245       57 2  1 1.2432500124e+00 2.9883599281e+00 3.2575500011e+00
     246       58 2  1 3.2410800457e+00 1.2206419945e+01 2.2994999886e+00
     247       59 2  1 1.4809020042e+01 6.1193399429e+00 4.6470098495e+00
     248       60 2  1 7.3514499664e+00 7.2554898262e+00 1.1103899479e+00
     249       35 2  1 4.8684999350e-01 4.0633001328e+00 8.8592395782e+00
     250       62 2  1 7.9498701096e+00 1.5261420250e+01 1.2922719955e+01
     251       63 2  1 1.5412019730e+01 5.5930900574e+00 1.1741220474e+01
     252       64 2  1 7.8202199936e+00 1.4425899982e+00 7.9145197868e+00
     253       61 2  1 1.0117500305e+01 1.2597399950e+00 1.0254810333e+01
     254       62 2  1 8.1101999283e+00 1.0818000140e-01 1.2047419548e+01
     255       63 2  1 1.5350720406e+01 6.6539201736e+00 1.2942620277e+01
     256       64 2  1 8.0458202362e+00 1.6690000900e-02 7.0975699425e+00
     257       65 2  1 8.8812704086e+00 3.7375900745e+00 1.2946419716e+01
     258       66 2  1 1.1661419868e+01 6.8551998138e+00 1.5732119560e+01
     259      112 2  1 1.0303730011e+01 4.6875200272e+00 1.0958000270e-01
     260       68 2  1 8.0857801437e+00 5.1339402199e+00 4.9711499214e+00
     261       65 2  1 7.3292498589e+00 3.4946200848e+00 1.3401419640e+01
     262       66 2  1 1.2469420433e+01 7.9732799530e+00 4.4800001000e-03
     263       67 2  1 4.7779297829e+00 7.0013298988e+00 7.0437197685e+00
     264      128 2  1 1.5624520302e+01 1.1705419540e+01 5.4044299126e+00
     265       69 2  1 6.0917301178e+00 1.1232319832e+01 1.4278220177e+01
     266       70 2  1 8.5067901611e+00 1.0618320465e+01 3.4443600178e+00
     267       52 2  1 1.2798419952e+01 9.8584299088e+00 4.8854298592e+00
     268       72 2  1 3.7830400467e+00 2.8905000687e+00 2.9046800137e+00
     269       69 2  1 4.7820301056e+00 1.0290060043e+01 1.4038120270e+01
     270       70 2  1 7.1761598587e+00 1.0848719597e+01 2.6528699398e+00
     271       71 2  1 2.0748100281e+00 6.4666399956e+00 1.6033420563e+01
     272       72 2  1 5.3769598007e+00 3.4491899014e+00 2.9945800304e+00
     273       73 2  1 1.2564920425e+01 2.6808400154e+00 2.7539699078e+00
     274       74 2  1 5.9225301743e+00 1.4830000700e-01 8.0135698318e+00
     275       75 2  1 1.0296210289e+01 3.8671300411e+00 9.6246004105e+00
     276       76 2  1 1.2619020462e+01 1.5370320320e+01 4.4828000660e-01
     277       73 2  1 1.1586319923e+01 2.4203500748e+00 3.8918399811e+00
     278       74 2  1 4.7386298180e+00 3.9197000860e-01 7.0593600273e+00
     279       61 2  1 1.1277219772e+01 2.1224400997e+00 1.0184889793e+01
     280       76 2  1 1.1020719528e+01 1.5446720123e+01 2.8446999190e-01
     281       77 2  1 1.3655920029e+01 1.8968100548e+00 8.5830802917e+00
     282       78 2  1 1.6295520782e+01 2.5802001360e-01 1.3609720230e+01
     283       79 2  1 1.5330220222e+01 1.4777919769e+01 1.3040320396e+01
     284       80 2  1 8.6059103012e+00 1.2488019943e+01 1.7353899479e+00
     285       77 2  1 1.3900719643e+01 2.9670000076e+00 9.6906995773e+00
     286       78 2  1 1.5705820084e+01 1.3114099503e+00 1.2601019859e+01
     287       79 2  1 1.5717619896e+01 1.4634420395e+01 1.4502820015e+01
     288       80 2  1 9.9461803436e+00 1.2731419563e+01 1.1440900564e+00
     289       81 2  1 1.3893219948e+01 7.1291799545e+00 1.4947420120e+01
     290       82 2  1 1.4587019920e+01 2.4594999850e-01 6.0628002880e-01
     291       83 2  1 1.6088520050e+01 1.0804920196e+01 2.6616999510e-01
     292       84 2  1 5.1763000488e+00 3.4711999893e+00 1.1168419838e+01
     293       81 2  1 1.4825119972e+01 8.2068500519e+00 1.4172519684e+01
     294       82 2  1 1.4860520363e+01 1.5066820145e+01 4.4203001260e-01
     295       28 2  1 1.4724519730e+01 3.6320500374e+00 1.1651720047e+01
     296       27 2  1 1.3466219902e+01 1.4150520325e+01 3.5702099800e+00
     297       85 2  1 6.5515198708e+00 1.3216520309e+01 6.1123600006e+00
     298       86 2  1 7.6973600388e+00 1.4915200472e+00 2.4017000200e-01
     299       87 2  1 1.2593219757e+01 1.8808300495e+00 1.5259619713e+01
     300       88 2  1 7.3618000750e-01 1.1578419685e+01 1.2098219871e+01
     301       85 2  1 7.3069300652e+00 1.2532219887e+01 4.7495198250e+00
     302       98 2  1 1.5836020470e+01 4.2184999590e-01 1.0527520180e+01
     303       87 2  1 1.1869919777e+01 5.3706002240e-01 1.5508219719e+01
     304       88 2  1 1.4253400564e+00 1.0251770020e+01 1.2411520004e+01
     305       89 2  1 5.3722500801e+00 1.1966919899e+01 1.2482020378e+01
     306       90 2  1 1.4492819786e+01 8.9310102463e+00 1.0563800335e+00
     307       75 2  1 1.0363510132e+01 4.2603898048e+00 8.1301498413e+00
     308       92 2  1 1.5456600189e+00 3.9554400444e+00 1.3748620033e+01
     309       89 2  1 6.1985301971e+00 1.3199919701e+01 1.1969320297e+01
     310       90 2  1 1.4102219582e+01 7.4810199738e+00 1.5541800261e+00
     311       33 2  1 8.0773001910e-01 1.0852319717e+01 6.7046999931e+00
     312       92 2  1 6.2181001900e-01 2.6401300430e+00 1.4070420265e+01
     313       93 2  1 1.5174420357e+01 1.8615599871e+00 1.5055919647e+01
     314       94 2  1 3.6487100124e+00 8.2751598358e+00 1.4984820366e+01
     315       95 2  1 1.5923620224e+01 1.3078720093e+01 1.5688119888e+01
     316       96 2  1 3.5888001320e-01 1.2424619675e+01 3.4643499851e+00
     317       93 2  1 1.4115719795e+01 2.7545700073e+00 1.5949219704e+01
     318       94 2  1 4.2683801651e+00 7.8965401649e+00 1.3621120453e+01
     319       95 2  1 1.4403719902e+01 1.3273520470e+01 1.5991419792e+01
     320       96 2  1 1.5336720467e+01 1.3109519958e+01 3.3662500381e+00
     321       97 2  1 1.9847400188e+00 2.7817499638e+00 1.5771320343e+01
     322       98 2  1 1.4483920097e+01 1.4346200228e+00 1.0555120468e+01
     323       99 2  1 1.3508119583e+01 7.8685002327e+00 5.4123601913e+00
     324      100 2  1 2.4792299271e+00 6.0350000860e-01 6.0694098473e+00
     325       97 2  1 3.2279798985e+00 1.8559700251e+00 1.6312019348e+01
     326      114 2  1 9.1920099258e+00 1.1619520187e+01 7.8817501068e+00
     327       99 2  1 1.2783220291e+01 6.2986998558e+00 5.5348701477e+00
     328      100 2  1 3.4992098808e+00 1.7462600470e+00 5.8084602356e+00
     329       53 2  1 5.8817400932e+00 1.9909000400e-01 1.5449219704e+01
     330      102 2  1 1.3145520210e+01 6.9865198135e+00 8.8036203384e+00
     331      103 2  1 1.0535420418e+01 6.7340798378e+00 3.5914199352e+00
     332      104 2  1 6.3808898926e+00 4.8206801414e+00 1.0301219940e+01
     333      101 2  1 1.1491220474e+01 1.3142720222e+01 3.0838599205e+00
     334      102 2  1 1.1731120110e+01 6.0981597900e+00 9.1941795349e+00
     335      103 2  1 9.8622798920e+00 8.0136804581e+00 4.2209300995e+00
     336      104 2  1 7.1787199974e+00 4.0091600418e+00 1.1322520256e+01
     337      105 2  1 1.4423520088e+01 7.0153598785e+00 7.1517400742e+00
     338      106 2  1 7.3862299919e+00 1.6174720764e+01 4.5710802078e+00
     339      107 2  1 5.4857201576e+00 6.4821300507e+00 9.1844701767e+00
     340      108 2  1 5.5193001030e-01 5.0368700027e+00 1.5419619560e+01
     341      105 2  1 1.5115119934e+01 7.5903301239e+00 8.7755403519e+00
     342      106 2  1 7.7120099068e+00 1.4885020256e+01 5.4720201492e+00
     343      107 2  1 6.9038000107e+00 6.9323601723e+00 9.9094200134e+00
     344      108 2  1 1.6193820953e+01 6.4124398232e+00 1.5437820435e+01
     345      109 2  1 2.9763300419e+00 2.2721000020e-01 2.4249598980e+00
     346      110 2  1 1.1779319763e+01 1.0850020409e+01 1.3386219978e+01
     347      111 2  1 1.4293620110e+01 1.3235719681e+01 8.6815595627e+00
     348       83 2  1 1.5740819931e+01 1.0903120041e+01 1.8280800581e+00
     349      109 2  1 4.5491800308e+00 1.6289049149e+01 2.5430600643e+00
     350      110 2  1 1.2258119583e+01 1.2381119728e+01 1.3270719528e+01
     351      111 2  1 1.3349320412e+01 1.3233119965e+01 7.3614602089e+00
     352      112 2  1 9.4850797653e+00 5.8311300278e+00 6.3769000770e-01
     353      113 2  1 1.1956620216e+01 1.1378520012e+01 9.2546501160e+00
     354      114 2  1 8.5540304184e+00 1.2609120369e+01 6.8035402298e+00
     355      115 2  1 3.2311999798e+00 1.4374819756e+01 2.8146998882e+00
     356      116 2  1 4.6851601601e+00 3.3364698887e+00 5.1848101616e+00
     357      113 2  1 1.3013420105e+01 1.2028120041e+01 1.0340200424e+01
     358      101 2  1 1.1209520340e+01 1.4499620438e+01 3.8401799202e+00
     359      115 2  1 2.6903600693e+00 1.3911120415e+01 4.2274699211e+00
     360      116 2  1 4.4161000252e+00 4.3293700218e+00 6.3396601677e+00
     361      117 2  1 1.4096520424e+01 1.1322219849e+01 1.6284219742e+01
     362      118 2  1 1.5069120407e+01 5.9094500542e+00 2.4706599712e+00
     363      119 2  1 1.3306019783e+01 4.8613901138e+00 1.4027999340e-01
     364      120 2  1 1.1697520256e+01 1.3341520309e+01 5.6620597839e+00
     365      117 2  1 1.3045220375e+01 1.1688320160e+01 1.5167619705e+01
     366      118 2  1 1.5689319611e+01 5.9145097733e+00 9.9571001530e-01
     367      119 2  1 1.3112319946e+01 4.4439301491e+00 1.4978520393e+01
     368      120 2  1 1.0954119682e+01 1.2922719955e+01 7.0095100403e+00
     369      121 2  1 3.2885100842e+00 3.6702098846e+00 1.2011819839e+01
     370      122 2  1 8.3817996979e+00 1.2046719551e+01 1.5625220299e+01
     371      123 2  1 3.5898699760e+00 8.5167198181e+00 4.8271698952e+00
     372      124 2  1 1.5741620064e+01 1.3004520416e+01 1.0440320015e+01
     373      121 2  1 1.8930799961e+00 4.2027997971e+00 1.1450420380e+01
     374      122 2  1 8.6922197342e+00 1.0858920097e+01 1.4582619667e+01
     375      123 2  1 2.4883399010e+00 8.7543201447e+00 3.6568799019e+00
     376      124 2  1 1.4388019562e+01 1.3729920387e+01 1.1048520088e+01
     377       91 2  1 1.3699919701e+01 1.0364080429e+01 1.2549420357e+01
     378      126 2  1 1.1916020393e+01 4.0477600098e+00 1.2936719894e+01
     379      127 2  1 7.0719299316e+00 5.0637001991e+00 1.5687400103e+00
     380       71 2  1 3.6430799961e+00 6.3007497787e+00 1.6387020111e+01
     381      125 2  1 2.8608500957e+00 8.0535602570e+00 1.0195100307e+00
     382      126 2  1 1.2277319908e+01 5.4857201576e+00 1.3040019989e+01
     383      127 2  1 7.0190601349e+00 3.5070400238e+00 1.3909499645e+00
     384      128 2  1 1.5247819900e+01 1.2120220184e+01 6.8465099335e+00
     385        1 3 -8 8.4960699081e+00 7.5073699951e+00 9.6371297836e+00
     386        2 3 -8 4.0597701073e+00 6.8156299591e+00 1.2051420212e+01
     387        3 3 -8 2.6408200264e+00 1.0598219871e+01 9.3506002426e+00
     388        4 3 -8 1.1694219589e+01 1.4214019775e+01 1.3693120003e+01
     389        5 3 -8 8.7306203842e+00 1.3607620239e+01 1.2758020401e+01
     390        6 3 -8 1.0342249870e+01 2.8897099495e+00 1.3001319885e+01
     391        7 3 -8 1.6010500193e+00 6.4406399727e+00 5.3241600990e+00
     392        8 3 -8 3.1527600288e+00 1.2283720017e+01 1.5380720138e+01
     393        9 3 -8 1.4798919678e+01 1.5740220070e+01 6.1582899094e+00
     394       10 3 -8 9.2309398651e+00 1.5580719948e+01 8.5355997090e-01
     395       11 3 -8 9.1436700821e+00 1.6327819824e+01 1.0490420342e+01
     396       12 3 -8 4.6231899261e+00 4.7593097687e+00 1.5846320152e+01
     397       13 3 -8 1.1337719917e+01 1.1849120140e+01 1.7001099586e+00
     398       14 3 -8 1.0370820046e+01 9.8193197250e+00 1.3924719810e+01
     399       15 3 -8 9.5739898682e+00 9.3357095718e+00 5.4412398338e+00
     400       16 3 -8 5.6118898392e+00 7.8216400146e+00 4.7569899559e+00
     401       17 3 -8 8.1148195267e+00 6.3689699173e+00 1.4318619728e+01
     402       18 3 -8 5.1289701462e+00 1.3673819542e+01 6.8581700325e+00
     403       19 3 -8 1.0273889542e+01 1.6011220932e+01 3.5431900024e+00