8.984280000000000044e-01 2.544939999999999980e+00 1.509630000000000027e+00 3.120480000000000143e+00 5.315570000000000128e+00 2.394019999999999815e+00 1.266799999999999926e+00 5.172760000000000247e+00 4.364589999999999748e+00 4.638980000000000103e+00 2.576610000000000067e+00 4.072020000000000195e+00 6.680209999999999759e+00 2.005850000000000133e+00 2.018790000000000084e+00 9.659319999999999240e+00 4.632319999999999993e+00 8.191359999999999753e-01 9.218429999999999680e+00 3.672390000000000043e+00 3.107110000000000039e+00 1.067179999999999929e+01 1.545409999999999950e+00 4.246859999999999857e+00 2.446039999999999992e+00 7.998969999999999914e+00 1.972509999999999986e+00 4.209509999999999863e+00 9.992070000000000007e+00 1.905810000000000004e+00 1.593269999999999964e+00 1.084900000000000020e+01 4.994069999999999787e+00 5.462710000000000399e+00 7.717740000000000045e+00 4.568310000000000315e+00 8.567199999999999704e+00 8.216459999999999653e+00 1.866409999999999902e+00 1.019860000000000078e+01 1.043779999999999930e+01 2.511600000000000055e+00 6.823870000000000324e+00 1.075339999999999918e+01 4.439790000000000347e+00 1.104379999999999917e+01 8.253500000000000725e+00 4.802999999999999936e+00 1.433030000000000026e+00 1.463019999999999987e+00 7.701489999999999725e+00 4.765579999999999927e+00 3.716180000000000039e+00 7.340530000000000221e+00 1.220420000000000060e+00 4.360420000000000407e+00 9.625260000000000815e+00 4.072600000000000442e+00 1.298499999999999988e+00 1.069100000000000072e+01 7.990969999999999906e+00 1.881879999999999997e+00 7.540460000000000385e+00 1.078700000000000081e+01 4.458639999999999937e+00 6.782560000000000144e+00 6.910420000000000229e+00 4.617600000000000371e+00 1.024409999999999954e+01 9.597860000000000724e+00 5.731859999999999733e-01 1.053200000000000003e+01 1.657380000000000075e+00 7.751669999999999838e+00 8.517899999999999139e+00 4.970509999999999984e+00 1.008639999999999937e+01 7.394549999999999734e+00 1.741670000000000051e+00 1.028040000000000020e+01 1.112059999999999960e+01 5.015340000000000131e+00 7.330659999999999954e+00 1.054090000000000060e+01 7.796890000000000320e+00 7.277820000000000178e+00 6.685360000000000191e+00 1.070369999999999955e+01 1.040199999999999925e+01 7.841660000000000075e+00 7.339949999999999974e+00 9.233459999999999113e+00 1.015939999999999976e+01 1.109810000000000052e+01 7.005110000000000170e+00 1.088449999999999918e+01 3.152880000000000127e+00 1.541809999999999903e+00 1.444569999999999910e+00 5.130320000000000435e-01 5.046499999999999986e+00 9.419330000000000203e-01 4.852579999999999671e+00 4.949959999999999916e+00 4.997029999999999639e+00 1.666860000000000008e+00 2.476469999999999949e+00 4.700149999999999828e+00 1.006269999999999953e+01 1.503640000000000088e+00 1.281609999999999916e+00 6.866609999999999658e+00 4.438950000000000173e+00 1.258539999999999992e+00 1.055640000000000001e+01 5.770190000000000374e+00 4.562899999999999956e+00 7.116729999999999556e+00 1.492059999999999942e+00 4.483690000000000175e+00 5.352050000000000196e+00 7.443559999999999732e+00 1.504480000000000040e+00 1.554540000000000033e+00 1.090889999999999915e+01 2.213260000000000005e+00 4.230760000000000076e+00 1.088189999999999991e+01 4.296890000000000320e+00 1.883250000000000091e+00 7.840620000000000367e+00 5.253940000000000055e+00 1.133070000000000022e+01 8.020469999999999544e+00 2.161309999999999842e+00 7.000000000000000000e+00 1.077749999999999986e+01 1.530540000000000012e+00 1.055889999999999951e+01 1.130349999999999966e+01 5.018729999999999691e+00 7.669349999999999667e+00 6.679979999999999585e+00 3.755399999999999849e+00 4.848080000000000389e+00 8.347700000000000120e-01 7.717100000000000293e+00 2.062520000000000131e+00 5.282359999999999722e+00 7.630289999999999573e+00 3.626650000000000151e+00 4.215110000000000134e+00 1.066150000000000020e+01 1.248680000000000012e+00 7.062479999999999869e-01 1.102839999999999954e+01 1.077940000000000076e+01 1.704490000000000061e+00 7.658009999999999984e+00 7.938060000000000116e+00 4.314849999999999852e+00 7.435030000000000250e+00 1.017699999999999960e+01 4.281329999999999636e+00 1.013760000000000083e+01 6.993750000000000355e+00 1.726469999999999949e+00 1.075520000000000032e+01 5.301179999999999559e+00 7.181390000000000384e+00 7.932970000000000077e+00 2.070650000000000102e+00 1.047920000000000051e+01 7.758429999999999715e+00 4.575709999999999944e+00 1.003250000000000064e+01 1.082220000000000049e+01 2.441790000000000127e+00 7.358749999999999680e+00 1.120059999999999967e+01 1.075370000000000026e+01 7.595349999999999824e+00 7.992639999999999745e+00 8.135540000000000660e+00 1.026040000000000063e+01 7.695459999999999745e+00 1.094890000000000008e+01 1.026469999999999949e+01 1.039390000000000036e+01 8.094620000000000815e+00 6.608570000000000277e+00 1.177020000000000088e+01
5.468569999999999709e+00 2.833590000000000053e+00 7.540230000000000210e+00 5.021539999999999893e+00 7.699609999999999843e+00 7.920650000000000190e-01 4.640200000000000102e+00 4.853640000000000398e+00 1.799439999999999928e+00 7.174509999999999721e+00 2.139390000000000125e+00 5.993470000000000297e+00 7.489729999999999777e+00 4.075529999999999653e+00 8.155730000000000146e+00 1.056850000000000023e+01 7.857969999999999899e+00 8.349429999999999907e+00 1.086209999999999987e+01 3.261299999999999866e+00 3.577799999999999869e+00 1.461680000000000090e+00 5.544220000000000148e+00 9.534440000000000026e+00 2.499849999999999905e+00 2.096119999999999983e+00 9.245679999999999454e-01 1.056429999999999936e+01 5.889770000000000394e+00 1.033070000000000022e+01 2.808959999999999901e+00 1.038320000000000043e+01 3.577620000000000022e+00 7.343070000000000430e-01 8.912459999999999383e+00 1.798059999999999992e+00 6.867429999999999701e+00 1.217980000000000018e+01 3.363430000000000142e+00 8.178470000000000795e+00 6.929660000000000153e+00 8.649609999999999133e+00 8.076829999999999288e+00 1.141900000000000048e+01 6.010430000000000383e+00 9.338179999999999481e+00 9.390680000000000138e-01 3.368949999999999889e+00 3.129080000000000084e+00 4.864550000000000374e+00 6.848740000000000272e+00 7.210960000000000036e+00 5.902899999999999814e+00 1.107319999999999993e+01 2.231180000000000163e+00 1.164799999999999969e+01 8.743520000000000181e+00 2.998979999999999979e+00 8.679380000000000095e+00 5.391510000000000247e+00 4.437700000000000422e+00 2.470159999999999911e+00 4.638620000000000410e+00 1.306410000000000071e+00 4.561540000000000039e-01 1.125900000000000034e+01 1.111839999999999939e+01 4.107140000000000235e+00 8.628209999999999269e+00 4.778139999999999610e+00 4.298169999999999824e+00 9.817959999999999354e+00 1.082459999999999978e+00 1.032520000000000060e+01 1.050799999999999912e+01 6.208109999999999573e+00 1.001520000000000010e+01 4.536780000000000257e+00 4.323229999999999684e+00 1.205610000000000070e+00 1.042609999999999992e+01 8.193080000000000140e+00 9.721740000000000492e+00 1.664469999999999894e+00 5.273789999999999978e+00 4.700269999999999726e+00 3.955140000000000100e+00 8.481230000000000047e+00 7.492099999999999760e+00 7.588260000000000005e-01 5.906159999999999854e+00 9.379720000000000724e+00 2.578320000000000167e+00 1.097579999999999956e+01 6.747889999999999944e+00 1.382330000000000059e+00 2.816479999999999873e+00 3.045910000000000117e+00 8.845420000000000726e+00 4.347859999999999836e+00 1.103620000000000045e+00 2.437139999999999862e+00 7.642529999999999824e+00 3.358410000000000117e+00 2.662059999999999871e+00 2.388399999999999856e+00 4.155300000000000438e+00 2.700880000000000170e+00 9.565789999999999793e+00 1.301889999999999992e+00 5.425539999999999807e-01 9.538410000000000721e+00 1.598989999999999911e+00 9.062269999999999825e+00 1.042939999999999934e+01 1.065460000000000074e+00 6.019449999999999967e+00 4.433609999999999829e+00 2.318689999999999918e-01 6.685859999999999914e+00 2.976820000000000022e+00 6.294559999999999711e+00 1.175650000000000084e+01 2.869139999999999802e+00 9.819929999999999382e+00 5.391289999999999694e-01 6.013110000000000177e+00 3.099990000000000023e+00 -4.091199999999999698e-02 1.029139999999999944e+01 1.015540000000000020e+01 3.693729999999999958e+00 8.618940000000000268e+00 8.877570000000000405e+00 6.317969999999999864e+00 5.156349999999999545e-01 2.742410000000000125e-01 2.108019999999999783e+00 9.571600000000000108e+00 1.042980000000000018e+01 9.326769999999999783e+00 8.942970000000000752e+00 4.208249999999999602e+00 5.273719999999999963e+00 1.809809999999999919e+00 2.800480000000000191e-01 5.419039999999999857e+00 9.614960000000000173e-01 3.181639999999999802e+00 6.056160000000000210e+00 3.526219999999999910e+00 7.413000000000000256e+00 8.684590000000000032e+00 1.159369999999999984e-01 3.935820000000000096e+00 8.606310000000000349e-01 6.840360000000000440e+00 7.124049999999999550e-01 8.958140000000000214e+00 8.979739999999999611e+00 4.409740000000000215e+00 1.168829999999999991e+01 1.168520000000000003e+01 6.821049999999999613e+00 3.897079999999999878e+00 5.205129999999999590e+00 9.353600000000000136e+00 7.136610000000000120e+00 1.256259999999999932e+00 6.790040000000000298e+00 6.659270000000000245e+00 1.034370000000000012e+00 9.578929999999999723e+00 7.254710000000000214e+00 6.359910000000000174e+00 6.038689999999999891e+00 5.896119999999999806e+00 6.600959999999999717e+00 1.181000000000000050e+01 2.729909999999999837e-01 1.064879999999999960e+01 1.051829999999999998e+01 2.880030000000000090e-01 4.217419999999999725e+00 7.195929999999999715e+00 3.457240000000000091e+00 6.182500000000000107e+00 9.058400000000000674e+00 1.090709999999999980e+01 7.987700000000000244e+00 6.522719999999999629e+00 3.066329999999999778e+00
1.282040000000000124e-01 1.442120000000000068e+00 3.342049999999999743e-01 3.214700000000000113e+00 4.722909999999999719e+00 1.135309999999999953e+01 6.460499999999999576e-02 5.957629999999999981e+00 5.074060000000000237e+00 1.215440000000000076e+00 3.092220000000000191e+00 1.132610000000000028e+01 9.067140000000000200e+00 1.028270000000000017e+00 4.519260000000000055e+00 1.112439999999999962e+01 6.441080000000000361e+00 9.998530000000000584e+00 6.807330000000000325e+00 5.602380000000000138e+00 8.497900000000000453e-01 2.799289999999999834e-01 1.137780000000000014e+00 6.356700000000000017e+00 1.258019999999999916e+00 8.496909999999999741e+00 1.386079999999999979e+00 4.155859999999999665e+00 9.660750000000000171e+00 2.783619999999999983e+00 3.343670000000000253e-01 2.215320000000000178e+00 2.676579999999999959e+00 6.195490000000000386e+00 6.594050000000000189e+00 3.205900000000000194e+00 1.179899999999999949e+01 7.944609999999999950e+00 3.996100000000000207e+00 1.035379999999999967e+01 2.650030000000000108e+00 2.112760000000000193e+00 1.108019999999999960e+01 1.075329999999999941e+01 6.593390000000000306e+00 1.198190000000000088e+00 1.101379999999999981e+01 6.910529999999999617e+00 1.231390000000000029e+01 1.675559999999999938e+00 9.263230000000000075e+00 6.140660000000000007e-01 3.495229999999999837e+00 5.112260000000000026e+00 1.089310000000000045e+01 2.607940000000000147e+00 5.277409999999999712e+00 2.850940000000000030e+00 5.460810000000000386e-01 8.619600000000000151e+00 5.403129999999999988e+00 8.913670000000000204e-01 7.693520000000000358e+00 6.825079999999999814e+00 5.934190000000000076e+00 6.142120000000000246e+00 8.809430000000000760e+00 7.421170000000000044e+00 7.935620000000000118e+00 1.141750000000000043e+01 4.309680000000000177e+00 2.143390000000000017e-01 4.279149999999999565e+00 7.599990000000000023e+00 5.551300000000000345e+00 4.211820000000000341e+00 9.228149999999999409e+00 7.918129999999999669e+00 2.077490000000000059e+00 9.397339999999999804e+00 9.094379999999999242e+00 3.558600000000000207e+00 7.579620000000000246e+00 1.088470000000000049e+01 6.895679999999999588e+00 9.182689999999999131e+00 1.030700000000000038e+01 9.376210000000000377e+00 1.086890000000000001e+01 1.143740000000000023e+01 9.966129999999999711e+00 1.150929999999999964e+01 2.163920000000000066e+00 7.896600000000000286e-01 6.825840000000000352e+00 1.164289999999999914e+01 4.797180000000000000e+00 7.248120000000000118e-01 4.134439999999999782e-01 1.133039999999999914e+01 6.042989999999999640e+00 1.987239999999999895e+00 2.891809999999999992e+00 3.484259999999999913e+00 1.978699999999999903e+00 1.069219999999999970e+01 5.777099999999999902e+00 7.076719999999999899e+00 7.386029999999999873e+00 2.337759999999999838e+00 1.618409999999999904e+00 8.130670000000000286e+00 5.918339999999999712e+00 1.036059999999999981e+01 9.185819999999999652e+00 4.658489999999999576e+00 4.043969999999999843e+00 7.421389999999999709e+00 1.981519999999999948e+00 8.291919999999999291e+00 3.127050000000000107e+00 7.028170000000000250e+00 3.167629999999999946e+00 2.980640000000000178e+00 1.049169999999999980e+01 6.359740000000000393e-01 9.030630000000000379e+00 9.084699999999999775e+00 4.893570000000000420e+00 1.456059999999999910e+00 8.303190000000000737e+00 6.140509999999999913e+00 8.658709999999999241e+00 7.238059999999999938e+00 2.831059999999999910e+00 7.608789999999999942e+00 1.069549999999999912e+01 1.894360000000000044e+00 6.525950000000000362e-01 1.043829999999999991e+01 3.014600000000000168e+00 1.177950000000000053e+01 9.329610000000000625e+00 8.652060000000000528e+00 5.001990000000000158e+00 3.546170000000000155e-01 4.142380000000000173e+00 3.772139999999999826e+00 5.178840000000000110e+00 6.556600000000000428e+00 5.337150000000000283e+00 3.499490000000000212e+00 1.140220000000000056e+01 5.343109999999999804e-01 1.081020000000000003e+01 1.162079999999999913e+01 9.595489999999999853e+00 1.194040000000000035e+01 8.379580000000000695e+00 6.570420000000000371e+00 3.330509999999999859e+00 4.596400000000000041e+00 1.052609999999999957e+01 3.849990000000000023e+00 9.125560000000000116e+00 8.881899999999999906e+00 1.694269999999999943e+00 1.102350000000000030e+01 4.801210000000000200e+00 6.754450000000000287e+00 8.781000000000000583e+00 3.474340000000000206e+00 1.063760000000000083e+01 5.290750000000000064e+00 4.532199999999999562e+00 1.088589999999999947e+01 1.013819999999999943e+01 2.718719999999999803e+00 3.090349999999999930e+00 8.420120000000000715e+00 1.603250000000000064e+00 6.255460000000000242e+00 9.113329999999999487e+00 7.145900000000000141e+00 1.054199999999999982e+01 7.448100000000000165e+00 9.776579999999999160e+00 8.507220000000000226e+00 2.935900000000000176e-01 5.593469999999999942e+00 8.402219999999999800e+00 3.714169999999999972e-01
8.398799999999999322e-02 1.396490000000000009e+00 2.963009999999999811e-01 3.254550000000000054e+00 4.681949999999999612e+00 1.139240000000000030e+01 8.201200000000000156e-02 5.992090000000000138e+00 5.110280000000000378e+00 1.193820000000000103e+00 3.091849999999999987e+00 1.128279999999999994e+01 9.122820000000000817e+00 1.010359999999999925e+00 4.424179999999999779e+00 1.114700000000000024e+01 6.425690000000000346e+00 1.000609999999999999e+01 6.777050000000000018e+00 5.567549999999999777e+00 8.209079999999999711e-01 2.835219999999999962e-01 1.182169999999999943e+00 6.404250000000000220e+00 1.324040000000000106e+00 8.553419999999999135e+00 1.395000000000000018e+00 4.262880000000000003e+00 9.606210000000000804e+00 2.774900000000000144e+00 3.013870000000000160e-01 2.235370000000000079e+00 2.521030000000000104e+00 6.254330000000000389e+00 6.520640000000000214e+00 3.303720000000000212e+00 1.188030000000000008e+01 8.088850000000000762e+00 4.003849999999999909e+00 1.048249999999999993e+01 2.692919999999999980e+00 2.103940000000000143e+00 1.105189999999999984e+01 1.077459999999999951e+01 6.609200000000000408e+00 1.258159999999999945e+00 1.099990000000000023e+01 6.934829999999999828e+00 8.026899999999999313e-02 1.634400000000000075e+00 9.343220000000000525e+00 5.914559999999999818e-01 3.460170000000000190e+00 5.060670000000000002e+00 1.086589999999999989e+01 2.600589999999999957e+00 5.286509999999999820e+00 2.813979999999999926e+00 5.636409999999999476e-01 8.572419999999999263e+00 5.362549999999999706e+00 9.025459999999999594e-01 7.593580000000000219e+00 6.774200000000000443e+00 6.010670000000000179e+00 6.161159999999999748e+00 8.791460000000000719e+00 7.475410000000000110e+00 7.931949999999999612e+00 1.143500000000000050e+01 4.336640000000000050e+00 2.084189999999999932e-01 4.296929999999999694e+00 7.633440000000000225e+00 5.537679999999999936e+00 4.208459999999999646e+00 9.186890000000000001e+00 7.940559999999999619e+00 2.071379999999999999e+00 9.332739999999999370e+00 9.058239999999999625e+00 3.542829999999999924e+00 7.617230000000000167e+00 1.084869999999999912e+01 6.875429999999999708e+00 9.155319999999999681e+00 1.027439999999999998e+01 9.353329999999999700e+00 1.097760000000000069e+01 1.148639999999999972e+01 9.976530000000000342e+00 1.156150000000000055e+01 2.230399999999999938e+00 6.655459999999999710e-01 6.832559999999999967e+00 1.160200000000000031e+01 4.786489999999999689e+00 6.735520000000000396e-01 4.410979999999999901e-01 1.132610000000000028e+01 6.037799999999999834e+00 2.007600000000000051e+00 2.881959999999999855e+00 3.504329999999999945e+00 2.039449999999999985e+00 1.062589999999999968e+01 5.865630000000000344e+00 7.133390000000000342e+00 7.375930000000000319e+00 2.372199999999999864e+00 1.636249999999999982e+00 8.118090000000000472e+00 5.894860000000000433e+00 1.028730000000000011e+01 9.189510000000000289e+00 4.611379999999999590e+00 4.015010000000000190e+00 7.391119999999999912e+00 1.965840000000000032e+00 8.228550000000000253e+00 3.112420000000000186e+00 7.014540000000000219e+00 3.188779999999999948e+00 2.954520000000000035e+00 1.046250000000000036e+01 6.453280000000000127e-01 9.033030000000000115e+00 9.103740000000000165e+00 4.924159999999999648e+00 1.485170000000000101e+00 8.280049999999999244e+00 6.120260000000000034e+00 8.622270000000000323e+00 7.309870000000000090e+00 2.809159999999999879e+00 7.685880000000000045e+00 1.065349999999999930e+01 1.855790000000000051e+00 6.515039999999999720e-01 1.045730000000000004e+01 3.118300000000000072e+00 1.178850000000000087e+01 9.275240000000000151e+00 8.668839999999999435e+00 4.975459999999999994e+00 3.497239999999999793e-01 4.085110000000000241e+00 3.752769999999999939e+00 5.162490000000000023e+00 6.557769999999999655e+00 5.404860000000000220e+00 3.564509999999999845e+00 1.139850000000000030e+01 4.958069999999999977e-01 1.079299999999999926e+01 1.168180000000000085e+01 9.547639999999999461e+00 1.137449999999999989e-01 8.402939999999999188e+00 6.554249999999999687e+00 3.307350000000000012e+00 4.593539999999999957e+00 1.053059999999999974e+01 3.858239999999999892e+00 9.085060000000000358e+00 8.869350000000000733e+00 1.762399999999999967e+00 1.109650000000000070e+01 4.774499999999999744e+00 6.727339999999999876e+00 8.789199999999999235e+00 3.504610000000000003e+00 1.060469999999999935e+01 5.252010000000000289e+00 4.558510000000000062e+00 1.091060000000000052e+01 1.015279999999999916e+01 2.756510000000000016e+00 3.018339999999999801e+00 8.368290000000000006e+00 1.619439999999999991e+00 6.290370000000000239e+00 9.147809999999999775e+00 7.140900000000000247e+00 1.051110000000000078e+01 7.390270000000000117e+00 9.732369999999999521e+00 8.452339999999999520e+00 3.073150000000000048e-01 5.636840000000000295e+00 8.338119999999999976e+00 3.982600000000000029e-01
1.506890000000000063e+00 1.514850000000000030e+00 3.217090000000000227e-01 4.247560000000000002e+00 3.061100000000000154e+00 8.333970000000000544e-01 2.946909999999999918e+00 5.517339999999999911e+00 4.693870000000000431e+00 4.414209999999999745e+00 1.275190000000000046e+00 3.775999999999999801e+00 7.248029999999999973e+00 3.413419999999999788e-01 1.379620000000000068e+00 8.740209999999999368e+00 3.901580000000000048e+00 2.390730000000000022e+00 9.113099999999999312e+00 3.533040000000000180e+00 5.539130000000000109e+00 1.058820000000000050e+01 2.547010000000000218e+00 3.737569999999999837e+00 2.772349999999999870e+00 8.298899999999999721e+00 1.687389999999999946e+00 5.037119999999999820e+00 9.519349999999999312e+00 2.420030000000000125e+00 1.282680000000000042e+00 1.073470000000000013e+01 4.029989999999999739e+00 5.240669999999999717e+00 7.265600000000000058e+00 3.941479999999999873e+00 8.536390000000000811e+00 6.608719999999999928e+00 2.608210000000000139e+00 1.001619999999999955e+01 1.058849999999999980e+01 1.333380000000000010e+00 7.429599999999999760e+00 9.952170000000000627e+00 5.049159999999999648e+00 1.014669999999999916e+01 7.803359999999999630e+00 5.130849999999999689e+00 1.985430000000000028e+00 1.755439999999999889e+00 7.427240000000000286e+00 4.674629999999999619e+00 5.529349999999999987e+00 7.714730000000000310e+00 1.542950000000000044e+00 5.475220000000000198e+00 1.060629999999999917e+01 6.009459999999999802e+00 2.437669999999999781e+00 1.005599999999999916e+01 7.450239999999999974e+00 2.180439999999999934e+00 6.939420000000000144e+00 1.066820000000000057e+01 3.528950000000000031e+00 8.674620000000000886e+00 7.173399999999999999e+00 4.527759999999999785e+00 1.085580000000000034e+01 1.142600000000000016e+01 2.226690000000000058e+00 1.054519999999999946e+01 2.055860000000000021e+00 7.312369999999999592e+00 6.786889999999999645e+00 4.833919999999999995e+00 1.113429999999999964e+01 7.792779999999999596e+00 1.002890000000000059e+00 1.116760000000000019e+01 1.042019999999999946e+01 5.790750000000000064e+00 6.563049999999999606e+00 1.532010000000000094e+00 7.903810000000000002e+00 8.570990000000000109e+00 8.197309999999999874e+00 1.052890000000000015e+01 1.004819999999999958e+01 7.877830000000000332e+00 7.485909999999999620e+00 1.071690000000000076e+01 1.095429999999999993e+01 1.017650000000000077e+01 7.572070000000000078e+00 1.062490000000000023e+01 4.616959999999999731e+00 4.264000000000000429e-03 9.603019999999999889e-01 1.158549999999999969e+01 5.010679999999999801e+00 1.538980000000000015e+00 5.403920000000000279e+00 4.394759999999999778e+00 4.659530000000000172e+00 1.348659999999999970e+00 1.999309999999999921e+00 3.824679999999999858e+00 1.030959999999999965e+01 1.474259999999999904e+00 1.565320000000000045e+00 6.192040000000000433e+00 3.674469999999999903e+00 1.376609999999999889e+00 1.107179999999999964e+01 5.215279999999999916e+00 4.724929999999999630e+00 7.254859999999999864e+00 8.439649999999999652e-01 4.095650000000000013e+00 2.280009999999999870e+00 5.613839999999999719e+00 1.623480000000000034e+00 7.444490000000000274e-01 1.089949999999999974e+01 1.300159999999999982e+00 4.162689999999999557e+00 1.038410000000000011e+01 5.234709999999999752e+00 1.619040000000000035e+00 8.159420000000000783e+00 3.998320000000000096e+00 1.100999999999999979e+01 8.040660000000000807e+00 1.380949999999999900e+00 7.645419999999999661e+00 9.179700000000000415e+00 2.716219999999999857e+00 1.042489999999999917e+01 1.056240000000000023e+01 4.363360000000000127e+00 7.206459999999999866e+00 7.049380000000000202e+00 5.704399999999999693e+00 4.705140000000000100e+00 2.482089999999999907e+00 7.004240000000000244e+00 1.448979999999999935e+00 4.746190000000000353e+00 7.863900000000000112e+00 4.102719999999999700e+00 5.471799999999999997e+00 1.078539999999999921e+01 2.908720000000000194e+00 1.790510000000000046e+00 1.020679999999999943e+01 1.058200000000000074e+01 1.483719999999999928e+00 7.032479999999999620e+00 7.537630000000000052e+00 4.576830000000000176e+00 7.951299999999999812e+00 9.704769999999999897e+00 4.692739999999999689e+00 1.078609999999999935e+01 8.244160000000000821e+00 1.539970000000000061e+00 1.113679999999999914e+01 4.647190000000000154e+00 8.536809999999999121e+00 7.898649999999999949e+00 1.587809999999999944e+00 1.073569999999999958e+01 7.564320000000000377e+00 4.508600000000000385e+00 1.037330000000000041e+01 1.063339999999999996e+01 1.916309999999999958e+00 8.142780000000000129e+00 9.215730000000000643e+00 1.010319999999999929e+01 6.880749999999999922e+00 7.864709999999999646e+00 8.001979999999999649e+00 1.099310000000000009e+01 7.738789999999999836e+00 1.023049999999999926e+01 1.037049999999999983e+01 1.036950000000000038e+01 7.551730000000000054e+00 7.666019999999999612e+00 1.078379999999999939e+01
9.266959999999999642e-01 2.505619999999999958e+00 1.485749999999999904e+00 3.136610000000000120e+00 5.321180000000000021e+00 2.374620000000000175e+00 1.253929999999999989e+00 5.182339999999999947e+00 4.347680000000000433e+00 4.626730000000000231e+00 2.554060000000000219e+00 4.064110000000000333e+00 6.681610000000000049e+00 2.019439999999999902e+00 2.016770000000000174e+00 9.671030000000000015e+00 4.659360000000000390e+00 7.857429999999999692e-01 9.169810000000000016e+00 3.673200000000000021e+00 3.116239999999999899e+00 1.064499999999999957e+01 1.582929999999999948e+00 4.197799999999999976e+00 2.441240000000000077e+00 8.002850000000000463e+00 1.968399999999999928e+00 4.215139999999999887e+00 1.000270000000000081e+01 1.850649999999999906e+00 1.569120000000000070e+00 1.088509999999999955e+01 4.967710000000000292e+00 5.416059999999999874e+00 7.752369999999999983e+00 4.568769999999999776e+00 8.584490000000000620e+00 8.241170000000000329e+00 1.868230000000000057e+00 1.021359999999999957e+01 1.043110000000000070e+01 2.449710000000000054e+00 6.866880000000000095e+00 1.073789999999999978e+01 4.442829999999999835e+00 1.105460000000000065e+01 8.228160000000000807e+00 4.836199999999999832e+00 1.399489999999999901e+00 1.477959999999999940e+00 7.693990000000000329e+00 4.784589999999999677e+00 3.705820000000000114e+00 7.341999999999999638e+00 1.193799999999999972e+00 4.354379999999999917e+00 9.658450000000000202e+00 4.055390000000000050e+00 1.340000000000000080e+00 1.067549999999999955e+01 8.000479999999999592e+00 1.922090000000000076e+00 7.523920000000000385e+00 1.082959999999999923e+01 4.500009999999999621e+00 6.797979999999999912e+00 6.932830000000000048e+00 4.615280000000000271e+00 1.029349999999999987e+01 9.586869999999999337e+00 6.085690000000000266e-01 1.047930000000000028e+01 1.672840000000000105e+00 7.702259999999999884e+00 8.503159999999999386e+00 4.968759999999999621e+00 1.009660000000000046e+01 7.376839999999999620e+00 1.753670000000000062e+00 1.029909999999999926e+01 1.112870000000000026e+01 4.997040000000000148e+00 7.319480000000000430e+00 1.052919999999999945e+01 7.839859999999999829e+00 7.311289999999999623e+00 6.721650000000000347e+00 1.068009999999999948e+01 1.039990000000000059e+01 7.861360000000000348e+00 7.321790000000000020e+00 9.263680000000000803e+00 1.015240000000000009e+01 1.106630000000000003e+01 7.020800000000000374e+00 1.089269999999999960e+01 3.145970000000000155e+00 1.540519999999999889e+00 1.465289999999999981e+00 5.369340000000000224e-01 5.032070000000000043e+00 9.676869999999999639e-01 4.861250000000000071e+00 4.936589999999999812e+00 5.011389999999999567e+00 1.680760000000000032e+00 2.442740000000000133e+00 4.705000000000000071e+00 1.008789999999999942e+01 1.507779999999999898e+00 1.288399999999999990e+00 6.888160000000000061e+00 4.440279999999999561e+00 1.284310000000000063e+00 1.056370000000000076e+01 5.769759999999999778e+00 4.532140000000000057e+00 7.100999999999999979e+00 1.500089999999999923e+00 4.487849999999999895e+00 5.319370000000000154e+00 7.448979999999999713e+00 1.519130000000000091e+00 1.561579999999999968e+00 1.092810000000000059e+01 2.206589999999999829e+00 4.232879999999999754e+00 1.086079999999999934e+01 4.301370000000000360e+00 1.878220000000000001e+00 7.841300000000000381e+00 5.271810000000000329e+00 1.132910000000000039e+01 8.003729999999999123e+00 2.151800000000000157e+00 6.991170000000000329e+00 1.077519999999999989e+01 1.524769999999999959e+00 1.055959999999999965e+01 1.130380000000000074e+01 5.049210000000000420e+00 7.661120000000000374e+00 6.682299999999999685e+00 3.756450000000000067e+00 4.859280000000000044e+00 8.441610000000000502e-01 7.735350000000000392e+00 2.050079999999999902e+00 5.303799999999999848e+00 7.663870000000000182e+00 3.622850000000000126e+00 4.210180000000000256e+00 1.064349999999999952e+01 1.265419999999999989e+00 6.904470000000000329e-01 1.103560000000000052e+01 1.078279999999999994e+01 1.664989999999999970e+00 7.676720000000000432e+00 7.918090000000000295e+00 4.318500000000000227e+00 7.423890000000000100e+00 1.019410000000000061e+01 4.277750000000000163e+00 1.014339999999999975e+01 7.004100000000000215e+00 1.706979999999999942e+00 1.075939999999999941e+01 5.279799999999999827e+00 7.166929999999999801e+00 7.897630000000000372e+00 2.053650000000000198e+00 1.045320000000000071e+01 7.750619999999999621e+00 4.571500000000000341e+00 1.003930000000000078e+01 1.084179999999999922e+01 2.442159999999999886e+00 7.343300000000000161e+00 1.117800000000000082e+01 1.075660000000000061e+01 7.614049999999999763e+00 7.992130000000000400e+00 8.126440000000000552e+00 1.025539999999999985e+01 7.702399999999999913e+00 1.096299999999999919e+01 1.026329999999999920e+01 1.040820000000000078e+01 8.100630000000000663e+00 6.588149999999999729e+00 1.174629999999999974e+01