-1.050625745154922697e+04
-1.049841622768460184e+04
-1.049565997380947010e+04
-1.049556576502980170e+04
-1.050211096652961533e+04
-1.050631076273797044e+04
-1.049789655504949405e+04
-1.049553146322410248e+04
-1.049637619403874123e+04
-1.049756975770010467e+04
-1.050617757216175232e+04
-1.049909505985171381e+04
-1.049710070179704235e+04
-1.049887812729744292e+04
-1.049589376223315230e+04
-1.050054509173064253e+04
-1.049743062541743893e+04
-1.049831232400563931e+04
-1.049690657070079942e+04
-1.049635555440009921e+04
-1.049579787545342151e+04
-1.049679946730899064e+04
-1.050089363974767002e+04
