-2.048862228233601979e+00 -7.454502233843829373e-02 4.713845105615717679e-01 -5.406875677788581386e-02 -5.806065154299302339e-02 -2.406573125916827705e-01 5.754776788477867777e-01 8.900336384436634274e-02 -2.597590664032811136e-01 -7.809720704124444302e-01 -1.213678447707615460e+00 -5.909315514969902816e-01 -4.159160452237707362e-01 -1.584315823634466991e+00 -1.482229658474390588e+00 8.936295833222406282e-01 -4.125766964404902759e-01 7.216176397596987258e-01 -4.538521581184016274e-01 -4.401888017093247285e-01 3.839428347761556504e-01 2.898312031749202267e-01 5.805324676589427302e-01 9.637677348456628879e-02 -5.563563846521779599e-01 -2.529183893376851233e-01 1.271600773900638748e+00 6.089143612136672656e-01 1.504758692797316666e-01 -1.190795629589971538e+00 -5.999242419069085175e-01 -1.660485268948942161e-01 3.624802940437011345e-01 -1.142675377081409316e+00 7.779967898365187651e-01 2.667565807615934204e-01 2.343617093958554887e-01 1.940202266515863583e+00 7.212376307127563724e-01 -5.711757090416696298e-02 1.030016321509717558e+00 -1.119706684118245033e+00 1.118989860557436433e+00 2.485068905369824943e-01 -2.240891238332447799e-01 5.162559171180601814e-01 1.344460181007849364e+00 1.169040497317989979e+00 1.268830153136192518e+00 1.382327902558443469e-02 2.247529826689723953e-01 -2.171296618016898411e-02 -3.154321915525612474e-01 1.268026426288599628e+00 -1.446357627196034334e+00 -2.047000749546279419e+00 2.596442409361873871e+00 2.749558287365559961e-01 1.953241359077865780e-01 -8.852405879341226358e-01 -9.285693325950395982e-01 -2.733187045109123137e+00 1.598639953555480442e-01 2.367528353339912739e-01 -2.853410286175433845e-03 1.503929254918130898e+00 -2.463415074562319562e-01 -1.075726421916765041e+00 -6.713284046259632154e-01 1.814653756586039890e-01 1.978062788977611453e-01 -4.641350280936493711e-01 -5.003978670522170047e-01 7.458024645172052214e-01 -5.740121500469939075e-01 -4.176957628306284809e-01 3.907038076438136831e-01 1.073075614559541591e-01 -3.756613115000959069e-01 2.785039510963704390e-01 4.416281052578929084e-02 6.190547920738906917e-01 -1.600465436798572949e-01 4.160070622756094627e-01 3.042242386606023863e-01 5.010617258879446201e-01 2.391619589942421131e-01 1.286950773982207252e+00 -1.100118477588910154e-01 -5.921281429073219638e-01 3.603503921865486986e-02 3.334386554183037532e-01 2.065629420376568492e-01 -4.076951999822701622e-01 6.519289170685195478e-02 -6.067942295485202475e-01 2.877528776471430572e+00 -6.185040617771717653e-01 1.239957693098676206e+00 4.388795959806163771e-01 2.698974403809770717e-01 6.042375245669263650e-01 -1.995546290460754879e-01 1.118841765015461398e+00 -6.237249438524175016e-01 -7.432740416703634834e-01 -8.618029257547048516e-01 3.300653680733207085e-01 -1.497256213778520688e-02 -3.733714870264359109e-01 7.922155045280014907e-01 -1.858737377134523250e+00 -6.109064519414819650e-01 1.238300874222832304e+00 -4.448008465564517316e-03 -1.877245720336958135e+00 -6.994069080078919587e-01 1.212904545656670274e+00 -8.369059054220762128e-01 1.805699118502879452e+00 -7.257288337113968479e-01 -4.863133639456491131e-01 1.059485277480188392e+00 -1.030629786723523234e+00 6.687336473176118401e-02 -1.111373224558367845e+00 4.881974683407737658e-01 7.191488665061523955e-01 1.785576636737044698e+00 -1.628310484013638926e-01 8.655274257912461966e-01 -2.766861811627553958e-01 5.952474052601675059e-01 -1.548786263296927368e-01 -1.040179892298374487e+00 3.705993236000939550e-01 1.602686869928196256e-01 3.422765654180329187e-01 -8.249435908631827519e-02 -5.134750119409766528e-02 4.021616717628551801e-02 9.166527836723816769e-01 -7.930912222640542630e-01 8.448022774448747940e-01 -6.760252958773466103e-02 4.210484813503371782e-01 -2.244259383471112201e-01 1.014512055238592225e+00 2.100030780647813011e-01 -3.623591436628355478e+00 1.236071727783731422e+00 -7.232024677470825225e-01 2.035953747712091477e-01 -4.177338151573858349e-01 4.794829712926903520e-01 -1.186681864535114039e+00 -5.143296466311232384e-01 -8.031627475596087029e-01 -3.329424325085615644e-02 -3.595579781928567864e-01 2.497883283515705433e+00 -6.084695603671109732e-01 -2.398597563916723407e-01 -2.891210644823254405e-01 -7.518748959588064107e-01 3.571725086816713857e-01 -1.204227586714712583e-01 -6.128013549698756446e-01 -1.399086352950668355e-01 7.344870395131881946e-02 -1.117882743537047752e+00 1.035830614194126753e-01 6.729620835733733930e-01 6.322219255732254295e-01 1.035829585752862991e+00 1.263953284663659193e+00 -1.227890991751515726e+00 -1.340940340782787121e+00 -2.189505170590961003e-01 -6.896593417104075474e-01 2.203522825015387099e-01 -5.917589324936485262e-01 5.470381925822941777e-02 -1.752400664231515526e+00 -1.243334065767450272e-02 -8.573086374322731740e-02 -6.421438126649094968e-01 -1.182872003873684241e-01 2.061848356070522748e+00 1.437050747980051391e+00 2.485933824472608578e+00 -2.451798316268034572e+00
-1.141749265723434492e+00 1.004416875793972125e-01 5.107445003858150923e-01 1.084794702759566409e-01 -7.199942452249257219e-01 5.617479879772002693e-01 6.369085324119717617e-01 3.980268236620916333e-01 -3.731627648719651802e+00 9.736793375247099203e-01 -6.043475677821438241e-01 -1.320012075286832065e+00 1.109246922245638478e+00 1.331717279529796905e+00 1.932929644119507628e-01 -2.059710740903892764e-02 6.784349337582292749e-01 2.794460032939328209e-01 5.927004704705789440e-01 -2.965021874320032391e-01 3.358477790785546063e-02 -2.520652973094341109e-01 5.994321327622210982e-02 3.364802704557388890e-02 -2.510882781089054938e-01 2.933052777637472075e-01 -5.215297639183872347e-01 6.029622573999205981e-01 1.485196197299574417e+00 -7.265047926448693349e-01 -2.205579707542816015e-01 9.727270009145103646e-01 -7.112905468101111683e-01 -4.984073189862979203e-01 -4.638439792160182207e-01 9.178797140999926940e-01 -3.418641604712834708e-02 6.007788765970550893e-01 -2.555013195715037377e-01 -5.295675466149467603e-01 -7.210165158410577479e-01 3.329198068007598321e-01 4.469914264481631566e-02 1.054728222414877736e+00 -3.216501474329781091e-02 -2.066344187054849901e-02 -3.169465713133806095e-01 -2.870209874218208057e-01 1.000533481582186690e+00 -1.843419258732130195e-01 -8.465022908537946922e-01 -2.590504189505186794e+00 2.222651318299841972e+00 -1.324586067807201673e+00 3.137224079516361397e-01 5.338715733035912514e-01 -8.711519710625000856e-01 1.914104026787216695e-01 5.463697057608797591e-02 6.754195439730188433e-01 -3.330941275949594327e-01 -2.520709537363844954e-01 9.650306607175040963e-01 -3.326169308485960041e-01 5.386193723975285508e-01 -6.872697584341672661e-01 -1.880525419526943298e-01 -8.120999021412863561e-01 -7.553921650807094990e-01 1.164593003073057575e+00 2.148620516593260810e+00 3.594299372555243705e-02 -5.191448086278338536e-01 -1.314577791649365501e+00 -4.583449037789376623e-01 6.445405950299957221e-01 1.391099478096662789e+00 5.103425855399555289e+00 1.300978198598638780e-03 -7.040369505771340020e-01 3.163007101997680204e-01 7.945531515204240502e-01 1.007136588715864756e+00 6.010848378730100361e-01 1.211523863260133949e+00 -5.821640897238254952e-01 2.298642329055062827e+00 8.085378958244118230e-01 -3.584446905248860338e-01 -7.691203132894003369e-01 -1.314268230828987694e+00 -1.368206889787013436e+00 -3.880840592127542177e+00 1.028533823428073452e-01 -1.802703269101679495e-01 -9.971288267786606596e-01 -2.161047686603353224e+00 -1.346937181791505456e+00 4.422302576177976619e-01 9.130722654127600979e-01 -1.436078356765209341e+00 6.255128889893848410e-01 2.490617345987563569e-01 -2.714077063767415532e-01 2.680549878570327449e-01 -1.480734304876949903e+00 1.294910395142724428e-02 1.573476566935549714e+00 1.295835992280067422e-04 -3.492961912635151878e-01 -3.644297044590716905e-01 1.362026472012722200e+00 9.282422882731784508e-01 -3.760495480771481464e-02 -4.879197891995709080e-01 -6.074097516448533352e-01 4.411236548180410000e-01 -7.968054378879585453e-02 -3.547896102736453061e-01 6.471003853353807234e-02 -8.361839396549486381e-01 -7.122392838758877520e-01 -7.457854952363539569e-01 1.188375193075819736e+00 4.605370263325447855e-01 6.170184783717363314e-02 -4.058028680570358038e-01 -8.249605601440341829e-01 5.747464571092858465e-01 -4.519351436028380409e-01 2.357187376433265372e-03 6.813269105917939272e-02 6.919923607171434288e-01 -1.058712403870507135e+00 4.714734707308830541e-02 7.608043372310061558e-01 3.783542849491319804e-01 8.494508319568636612e-01 8.933452193128234298e-02 -7.746101327551075943e-01 2.797617347618931022e-02 1.018948750850255797e-01 7.592765877337586122e-01 1.224776871604988937e+00 -2.869258566049271986e-01 -4.790309713572878381e-01 -1.669982924019343673e-01 -5.578039157308557483e-01 7.299449286719937868e-01 -1.963335510081221924e-01 5.464684361221964215e-01 -3.176659659773488076e-01 8.928865345092069639e-01 -4.236406675555291490e-01 4.246058596815250885e-01 -1.850721191704501889e-01 -1.250580977132213389e+00 -6.390003819423666354e-01 -2.268602588183230850e-01 1.536097354985220154e+00 -2.671432746767500088e+00 8.324918355182143737e-01 8.872774158569089742e-02 -2.200812882285499705e-01 5.713562004834514818e-01 -3.536567822216639678e-01 -2.613649774365709999e-01 -4.016330529533059801e-01 -4.751820299278369797e-01 -9.316839669621985731e-01 -5.220959208340620883e-01 -4.300211171556128642e-01 1.819447835536844194e+00 -2.679089491975853582e-02 1.701391520213179909e-01 3.871207182810329495e-02 1.457857143186256144e+00 3.669766392486601969e-01 -2.504614431586715470e-02 1.862275729302332317e-01 -6.425289639181704926e-01 -9.212982528605792587e-02 -7.517545683309518889e-01 -9.031796888970919923e-01 3.117334025476126147e-01 8.235942759251896339e-01 1.116779226061082042e+00 1.186740485687145741e+00 -2.540125994202139914e+00 -9.631352434684785704e-03 3.285921259630499303e-01 4.482656651739052589e-01
-1.323905239690622571e+00 -1.677379987808609085e+00 2.403894036424851777e-01 -1.725845282361147204e+00 1.269411222450191001e+00 7.285457343327104152e-01 1.040014313254916667e+00 -9.972260144780815683e-01 2.771006429920322423e-01 1.196438172583340176e+00 1.532816113133339542e+00 -7.164024141114033739e-01 -2.117982222905946954e-01 -1.513089067033402957e-01 -2.139481787523895562e-01 -6.682014289636397653e-01 2.993622825863928583e-01 1.827036189401160804e-01 -2.093700724669651514e-01 -4.518950343935531633e-01 -5.346130794547293563e-01 -2.179812111680453357e-01 1.852240199451007818e+00 3.456704215882902553e-01 -1.795221358908157538e-01 -8.067777186015647750e-01 2.317170726862140540e-01 9.881762455780273013e-01 -7.759892724897484717e-01 9.580305752560325239e-01 2.272886046046600939e+00 7.260383945317748500e-02 1.488584911263513222e+00 -1.583727555231622119e+00 -5.717336384272346805e-01 8.674110159657389962e-01 -6.984036635551387207e-01 2.370774113968195262e+00 -2.126667409378014684e-01 -2.041736672937957131e+00 -6.708933739714119382e-02 -3.592494458137425184e-01 -1.485433253010860488e+00 -4.298308555218258165e-01 -2.029847377708787537e+00 2.326056973601263955e+00 -9.862828852115290701e-01 5.938415260526700434e-01 5.625522290454249702e-02 -4.107131608706399151e-02 -5.212515705565526902e-01 3.564480232334478416e+00 7.974333012794561082e-01 -5.018567109847957841e-01 -3.569738652515849875e+00 -9.047408627354103228e-01 -6.716287094749677500e-02 -4.231269611443038148e-01 -5.945388092294683346e-01 -3.307719072214924672e-01 -1.791376017023129652e+00 -1.648779036264713449e+00 -1.121554278848507780e+00 -4.280182277945292491e-01 2.791189589720716614e-03 -5.671035958579928593e-01 -8.169726568487648555e-01 5.270236971491493172e-01 2.862100614853820349e-02 -2.336340872017775572e-01 -1.058958201332534932e+00 -1.543071729415098847e+00 4.516096419428723974e-01 4.632264002371577760e-01 -5.539750289060473010e-02 1.529118866790286413e+00 3.701822906676578012e-02 -1.391753566740385084e+00 -3.778647469076039100e-01 -3.377221132816739524e-01 1.019080391332011226e+00 -9.544685689391577688e-01 1.717651176592503715e-02 1.233085648574536952e+00 7.600731154925053357e-01 -4.015600336235822937e-02 -5.535369129277050160e-01 -4.730654978071128780e-01 3.429069999126898582e-01 -1.709937867114645904e-01 1.505286283165602201e+00 6.080926366439596276e-01 2.790120010806453887e-01 1.068277936064314093e-01 -4.105712359762472841e-01 1.904158999767099070e-01 7.202117605522012633e-01 1.532099803793162573e+00 6.201017452803518903e-01 1.136465648731102229e+00 7.316110035192109340e-01 5.579432695220891691e-01 -4.022927980239787704e-01 3.913219008433060225e-02 6.868444979716213650e-02 -1.126091761704015592e-01 5.076951720389020345e-02 -6.240900405010362251e-01 3.016526212806846519e-01 2.381494585701153521e-01 -2.331898005758529790e-01 2.183432224928727808e-02 3.516580066256351222e-01 -1.889390583220160735e-01 2.040962256666380426e-01 -9.736150599457278343e-01 5.276603022913886054e-01 1.185843170684554915e+00 3.041533790575324581e+00 5.405394722368831451e-01 -2.347000665716174883e-01 -6.017965192275003261e-01 -6.536217313885934743e-01 2.100863818071422029e-01 -1.838205061525098327e-01 1.693739917211145030e-01 7.949573289370638340e-01 5.417566324724891746e-01 1.277963739999239623e+00 -2.554416699782082745e-01 -9.835559732007905787e-01 -6.188902414716965228e-02 -2.046459275220933460e-01 6.919028863272004282e-01 -8.989779921141869412e-01 -1.093378587767158239e+00 -1.830831137664266639e-01 -3.707258218755308254e-01 -1.026895002274344604e+00 9.405789554520639362e-01 9.550825483735952970e-01 -1.935506917926375525e+00 -7.678280768415433055e-01 1.172805106563816535e+00 2.845875925477462598e+00 2.921650963567303361e+00 -1.768382127249004343e+00 4.697482605110022691e-01 -8.215718461800953776e-01 -1.300923176991030328e+00 2.078477737084151844e+00 -2.536203005001701483e-01 -4.102945852763081325e-01 -1.677279200564764983e+00 1.977435439806745493e-02 -1.508701736602397592e+00 5.629533211382734548e-01 -1.629791439433387334e-01 7.342623250970664595e-01 2.102468186442816300e-01 2.616385428127190327e-01 1.031531729711800682e-01 -1.201759327681798106e-01 -1.338059676803123210e+00 7.394358988741815963e-01 -6.614419987578772087e-02 8.369362444393557698e-01 1.012629493505363021e+00 2.046364658624671762e+00 -8.270878908980272559e-02 2.117000061499099695e-01 -2.033255117836104908e+00 -1.817894375008004104e+00 1.669326264272462446e+00 1.278475903748569120e+00 3.508378247178229326e-01 -1.653234758039755781e-01 -5.221730539288407247e-01 3.467739390642557429e-01 3.940647536936321971e-01 -8.628174830613588586e-01 -2.178670541877730515e-01 -8.694339599314652167e-01 -9.299829251120149687e-01 -9.537280912292835922e-01 -5.368957048395432974e-01 4.747716818636150138e-01 -8.314263703690062401e-01 1.290076721203266795e-02 5.524796753086066436e-01 -9.647272705447084151e-01 1.050720386810182871e+00
-1.116341624303371693e+00 -1.387310186260507283e+00 -4.272808354084460802e-01 -2.130728209707791088e+00 1.379681723186906295e+00 8.253631948987782962e-01 7.102178825720572020e-01 -7.270817481938129934e-01 1.146192646203312432e-01 1.037829389790155599e+00 1.244894725385136791e+00 -4.191427796886744717e-01 -3.453942851089829569e-01 -2.000009725545275063e-01 -8.867014887492288833e-02 -1.244460208951217561e+00 2.016068835878174481e-01 -1.596953309882988836e-01 -8.142837971647837181e-02 -1.580256565966586257e-01 -3.239209457432594141e-01 6.235953602531895713e-03 1.184819871627159182e+00 5.632238011906303132e-01 -6.869802522184317306e-01 -1.297337516525090217e+00 3.248732823534589143e-01 9.291802267056861186e-01 -7.069057874822651799e-01 5.614060312570152700e-01 4.392224782979386788e+00 -1.071255273522767060e-01 2.359172268072233791e+00 -1.777319796051314071e+00 -7.698273666582040597e-01 7.359880495375792364e-01 -9.112894624821112899e-01 1.419163069080267903e+00 -7.037006502838993871e-02 -4.173257296639439673e+00 3.653794699661118139e-01 -6.276376486402187593e-01 -9.049835748736468899e-01 -3.333234699967677073e-01 -1.601000226255704595e+00 1.491362731116805618e+00 -5.372032087773939146e-01 2.598007182744614951e-01 -1.433523708666142871e-01 -1.700424785425288382e-02 -6.457047905405204347e-01 3.512013787045459967e+00 8.361793116692620709e-01 -6.078524956088823261e-01 -3.469169952440383842e+00 -7.804331671902581258e-01 6.429660514552490436e-02 -2.013801122891684670e-01 -1.404450188361570540e+00 -2.394931170811581689e-02 -1.682468715181467900e+00 -1.734188512113030045e+00 -1.039699610228220106e+00 -3.072581403885596418e-01 -5.911120429387721475e-02 -5.867895043073807493e-01 -1.182590725188058522e+00 8.528133206685778456e-01 1.921657927869198368e-01 -1.634640539991800701e-01 -9.307239170425212205e-01 -1.547331018908771894e+00 5.205815410732427262e-01 2.591034350976632039e-01 4.086974159937598050e-02 1.720228964620003298e+00 2.079842478641101000e-01 -1.325179992636996706e+00 -3.794706579408938518e-01 -2.576584751221445146e-01 1.083599139790498267e+00 -8.998691364691953076e-01 1.622258107176680342e-01 1.596453487428823648e+00 6.049528054658397380e-01 -6.137943150099917783e-02 -3.997258086297477142e-01 -2.869094015447077872e-01 -1.671664425485516747e-01 7.177337313272814934e-02 1.731838523825442566e+00 6.427444223629187325e-01 2.635972091994630007e-01 4.942390465444636560e-01 -3.603246811549559031e-02 9.746882384044135428e-01 8.834696120780066719e-01 1.682773648016159251e+00 5.817820237943556183e-01 1.040255996951889417e+00 9.777859034907211422e-01 8.268467214216863592e-01 -3.389773258440373360e-01 5.643622856695620915e-02 -3.574450456165557261e-02 3.708806022857198403e-01 -2.708739453608737802e-01 -1.186180499419053458e+00 2.419438926125893896e-01 9.191128151751863651e-02 -2.068380500757004414e-01 7.617715862395296744e-02 3.020007486484519443e-01 -1.567894701976740024e-01 1.856963830175248076e-01 -6.387288734487459596e-01 4.993334303442726885e-01 1.197550946030679020e+00 2.925413001709970207e+00 6.259227228329751203e-01 -1.616977061287506734e-01 -6.515098272535559953e-01 -6.435872299785325712e-01 8.856637915141410966e-01 -2.992764077408726752e-03 2.297506929899922057e-01 7.920216433497913044e-01 4.918016407494606446e-01 1.192096093567938331e+00 -2.687013631912771872e-01 -9.666483988253268267e-01 1.551881871500707666e-01 2.188430449470379069e-01 5.078720639362609424e-01 -6.230286891168829166e-01 -1.318308462333489306e+00 -3.083364610535641592e-01 -4.705026221779367024e-01 -9.693310878617256154e-01 9.542191719327072219e-01 6.289160011310156451e-01 -2.118427537973135433e+00 -3.657358248639888676e-01 8.854262215822230608e-01 2.827919341013010346e+00 3.144531668915683920e+00 -1.828910523604279748e+00 4.562664239849710257e-01 -5.992572977473896723e-01 -1.382759847889203142e+00 2.063012551581047571e+00 -6.723378197262988021e-01 -4.292220182937068751e-01 -1.730880016567660995e+00 -1.254040139322716574e-01 -1.535646383491081179e+00 6.596005746751967269e-01 -3.848787163261357391e-01 7.031159814254778206e-01 2.159058166978697624e-01 3.573668840805133695e-01 6.631543534619616098e-02 -2.424961655712040004e-02 -1.554444232909252044e+00 6.551479382239454585e-01 -1.031084357762084985e-01 8.581097931767066589e-01 7.634325188804281792e-01 2.287327418271677626e+00 -2.379273152571530769e-01 3.876092278812973135e-02 -2.106031221200954651e+00 -1.918606542639757828e+00 1.823232499387313021e+00 1.132018154486169603e+00 4.294770717271080285e-01 -5.531080529207361707e-01 -4.322158108123793085e-01 1.278631712600021952e+00 3.671381045270633581e-01 -8.567419662959664395e-01 -5.413771376461785634e-01 -9.417040701945673664e-01 -9.184309586173438067e-01 -7.683906342127950762e-01 -4.615664960375227555e-01 4.082305036600334391e-01 -2.078119839524379397e-01 -3.803972835195004731e-01 3.413082879682459159e-01 -9.275167229616281261e-01 6.560889619802440231e-01
-3.620066968417606224e-01 1.595248668488381982e+00 6.236699222448088831e-01 -9.181276198666109778e+00 -2.670472182627190882e+00 -2.735643477067504659e+00 2.687676976527868591e-02 1.473807752965833849e-02 -2.495296753737463735e-01 3.278475344881207620e-01 -8.925173240955333598e-02 5.921687663372385835e-01 6.931591273308274070e-01 -2.402937586049598007e-01 -4.257284033208692808e-02 2.812360053134276283e-01 3.391629594921377611e-01 1.874087377216091532e-01 -4.911269832804641272e-02 2.014880986218584857e-01 -7.067818603099875752e-01 6.865729894780008280e-01 -2.839284645418317932e-01 1.963211068688312189e+00 2.863818111764223073e-01 4.351864634026181289e-01 -1.173969302074341137e+00 -7.351478130251245524e-01 -4.643422590082877943e-01 4.213127907551116880e-01 1.901665029702591658e-01 1.554491541207382976e+00 6.101186659334768558e-01 -1.072941917195258554e+00 -6.396303022163916108e-01 3.165490787649549720e-01 1.378111293377214386e-01 -1.502197874050667792e-01 -1.000056284835823366e-02 -1.631209145715417863e+00 -9.588564135907950980e-01 1.489748592553405970e-01 -5.043774205221597251e-01 7.972214423791310622e-01 2.059225830848051775e+00 -4.078402102004538565e-01 -1.149591644579888300e-01 -7.031504342078122305e-02 -4.595754337509719289e-01 2.242706437162903521e-01 -2.783085472562647489e-01 -7.930259162438083043e-02 -5.142129185476916886e-01 1.998755027203543977e-01 -9.506216843922343784e-01 2.419207526841558042e-01 -5.644913550481583941e-01 -8.251251107462284073e-01 -3.262673344864236435e-01 -8.303274808787274308e-01 -3.359891897523153426e-01 -1.493262776351517829e+00 3.276577870749654009e-01 7.241979988903580745e-01 5.958043062044686700e-01 -1.612931687576686368e+00 -1.075263109127461814e+00 9.397777997076304235e-01 -8.359170591470148001e-03 1.014944000569352411e+00 -8.646907888232147066e-01 1.034200020570507750e+00 1.318322860511181582e-01 -5.799956213192838383e-01 -6.195119342156117925e-01 8.543055889422272731e-02 1.260270950718929805e+00 2.552421523730477038e-01 7.200718925403361004e-01 -6.968666580865176541e-02 -3.475889787657493457e-01 4.716879007343674490e-01 1.337050775923419310e-01 -3.482147852747195516e-01 -7.796700637725820782e-01 -2.603691891829795768e+00 1.837320602038303996e-01 9.855444643841820840e-01 -4.534778054984095474e-01 -1.713228879158531726e+00 -6.622894343591778643e-01 -8.434745597734195632e-01 -2.166781760869192497e-01 1.075357211503091603e+00 -1.166314099527883535e-01 5.546651129939997871e-01 -8.700952476640335664e-01 1.363519768727635473e+00 7.449714839761240048e-01 -2.382790935914065766e+00 -6.214474606739222029e-01 -4.161541293763206251e-01 -2.228632218468973025e-01 -2.461455893954943852e-01 -2.358364941680217985e-01 1.057214479169906962e+00 2.997530902666042940e-01 6.092660881258576966e-01 -8.490322563625318786e-01 8.404118616900783101e-01 -1.480575410701705952e+00 8.635247421184152117e+00 2.692024711970220086e+00 2.746514101224965199e+00 7.128805170038136074e-01 3.897309022083400021e-01 8.303120542597716702e-02 -3.371179040392417448e-01 8.194537713974756610e-01 4.981949458653409102e-01 2.953896196729170587e+00 -1.822289932969118897e-01 6.201521389022739417e-01 2.250903628255338518e+00 -1.123330911131574572e+00 -3.712919787912055680e-01 4.966954785028452890e-01 5.487016963263520175e-01 -1.598045000284421313e+00 -4.451093789355660135e-01 -1.228215464970217718e+00 5.617798696563754968e-01 -6.093509345301140190e-01 -1.323512375127883889e+00 -1.710302963763264406e-01 2.468279601739688245e-01 -2.695421139243637243e-01 -2.962232741612839337e+00 -4.892511064154491662e-01 5.178258327071202372e-01 4.458585983961819155e-01 6.227844343167509011e-01 3.357223092443814561e-01 4.679988819214241924e-01 -5.059051700194072687e-01 -2.576975558901656860e-01 6.069654650189287154e-02 -1.280316813610617721e-01 -3.255232572321263285e-01 -8.417431789059565128e-02 1.302938407647278529e+00 -2.749486296477099759e-02 -5.628587045420118118e-01 -5.021364470085261031e-03 3.330288215747136404e-01 -1.058454779333946494e+00 1.281854333299870807e-01 -3.109476734221348626e-01 -4.062934345398275249e-01 -3.311534589303304910e-01 8.302498335633169413e-01 7.742620053873401353e-01 1.249866724674563834e+00 3.685486117202475542e-01 1.919947115827009387e+00 2.928820741837288022e-01 5.663255800419928487e-01 -7.724072115682314443e-01 7.257020942385402629e-01 -1.633245973638203896e+00 2.941172321414496915e-01 4.282378000043322169e-02 5.514769450764852587e-01 -5.779171415253172572e-01 3.422498259451763336e-01 -7.661368051833651327e-01 -7.702983927569851952e-01 -8.306437265673195514e-01 -3.467055477202187208e-01 2.312267118916750519e+00 7.119158390984495766e-01 7.613782074561589175e-01 -3.598207449357358478e-01 -1.447461144671999822e+00 2.349154221722392410e+00 -1.401369492556114316e-01 1.280368235673803590e-01 2.761256806740310932e-01 1.420056784538435757e+00 -1.174421816230375448e+00 -3.557429753251084570e-02 4.592967261685052538e-01
-2.561629672585143513e+00 2.944663879504806903e-01 3.921749928715570488e-01 -6.723640449785234230e-02 -6.000337709014940540e-02 -1.873871404550711828e-01 7.842126888344083113e-01 -1.375128813712442680e-02 -2.880684548489138019e-01 -8.292270487265529511e-01 -1.030876612626814737e+00 -5.187324036810844197e-01 -4.114808922740026409e-01 -1.739233530732180677e+00 -1.446079948054831421e+00 9.873632627590609445e-01 -5.644466178531868383e-01 1.270922002666587503e+00 -3.332869603319059126e-01 -3.975126030302345015e-01 1.379371133925264281e-01 3.299275569439830136e-01 2.411370804412054925e-01 1.868394954821432641e-01 -5.967900671557390124e-01 -2.666943600651386914e-01 1.165766454554955756e+00 6.143285902464914461e-01 2.817347993263290551e-01 -7.966696836411482074e-01 -5.689676456484750178e-01 -1.224575297117300732e-01 4.565173636533172985e-01 -8.976297056174574740e-01 6.004168652722275956e-01 1.498901719800463661e-01 6.037464438635027804e-03 1.571289586588261011e+00 5.314393097149068268e-01 5.398236771173380716e-02 1.148567831301860798e+00 -6.847181956588920260e-01 8.066393932515951715e-01 2.898872532237926070e-01 -3.205702841060780739e-01 4.955816766142427388e-01 1.566352040081168573e+00 1.021834042815606303e+00 1.544131023916724743e+00 1.235312223910478395e-02 2.072602252144551682e-01 -1.199419623806848023e-02 -3.347478611470121046e-01 1.321641126248555675e+00 -1.271924732898708887e+00 -1.962598631915770664e+00 2.382444351208193645e+00 2.980109107658722167e-01 1.544744489130530085e-01 -8.147080291860659962e-01 -8.684471705389311680e-01 -3.127062565610231992e+00 1.382698141413380433e-01 1.601725277346623122e-01 -3.361768802829431801e-02 1.323853817627437257e+00 -3.563636396277600760e-01 -1.230398331552451374e+00 -9.105937219672085581e-01 2.098611531703887811e-01 1.906082184930244783e-01 -3.521681134924374290e-01 -6.038559728580883412e-01 1.361407350371966141e+00 -3.632387694756904484e-01 -4.908066238268171122e-01 3.793780982271595104e-01 5.370674545305836184e-02 -3.948782507332302405e-01 1.122728758771669721e-01 -2.646796436295223084e-02 7.795101411560745319e-01 -1.158580221224751600e-01 3.249293324023312945e-01 1.786464181547629815e-01 4.509524679753590393e-01 1.770811305513897982e-01 1.429010908400964341e+00 -1.170674690486032260e-02 -6.416928411707708557e-01 1.341498784388984143e-02 2.576276218842331045e-01 3.076787728654188370e-01 -3.598125174056261422e-01 1.064390428087473722e-01 -5.890160796433222545e-01 3.449912389777332944e+00 -7.798109602257109474e-01 1.224007597539730430e+00 4.132405552762178913e-01 1.503570843137726765e-01 6.364601320209921642e-01 -2.435179219667041872e-01 1.033966050183012575e+00 -7.930536841579286511e-01 -8.037463879767665631e-01 -6.941356323107241710e-01 3.410398647984164144e-01 -9.526708536101850811e-02 -3.573792253756780113e-01 7.188290212731374140e-01 -1.975745196589830943e+00 -4.717058984564824198e-01 1.236381288604109452e+00 -1.490355372898997388e-01 -2.074551662559922516e+00 -4.986274054167327829e-01 1.260665357943564269e+00 -8.779268278872183195e-01 1.778785839072738684e+00 -5.406042640364971952e-01 -5.505508337185105461e-01 1.020357201160912552e+00 -1.104102144823907450e+00 -1.832579487812581107e-02 -1.011633448141455727e+00 7.440304602198254402e-01 4.955621362302322641e-01 1.594057219284368943e+00 -1.073816092269415656e-01 7.436165126111803358e-01 -3.714498445251857017e-01 6.646821029592092644e-01 -1.181416759485528489e-01 -8.828052390216470924e-01 4.311781135772915219e-01 1.935747573182084735e-01 4.056064357756663519e-01 -1.147190234229115285e-01 2.745218265232685778e-02 -4.405477277103609923e-01 6.855892854092581201e-01 -4.871859963579107111e-01 9.686764849973714675e-01 -8.050381102039917691e-02 3.732208203813018321e-01 -1.985966360089256033e-01 9.493371612538552551e-01 -3.972981730267500233e-01 -3.608773654900759631e+00 1.258265490254687036e+00 -7.190290530989297269e-01 2.571473398140785016e-01 -4.640470963656018188e-01 5.484785245721260916e-01 -1.303742648715503050e+00 -8.005325090276592670e-01 -6.154305650605613742e-01 -1.970647727466231028e-02 -2.940328999578251112e-01 2.915121904204613035e+00 -4.914596840292757562e-01 -2.346116206229380274e-01 -4.229685811896918279e-01 -1.068769530988369354e+00 3.437004423476454629e-01 -1.465431098872880256e-01 -5.361511133646140737e-01 -5.086104847636078313e-02 1.836801239200128166e-01 -1.013278954163398637e+00 1.611186936972795192e-01 6.978699025392710587e-01 6.034589945302946123e-01 1.076866963278224176e+00 1.194679023801756612e+00 -1.415096612323541336e+00 -1.457677680185737845e+00 -1.643845089302043705e-01 -5.806548521693247755e-01 1.754824186069458281e-01 -7.597183032565238969e-01 4.817784521933007186e-02 -1.845021056000365256e+00 3.815002867748341214e-02 -1.451948233905585306e-01 -6.742157534738412172e-01 -9.923429753579658674e-02 2.071428286442022149e+00 1.354919428659824066e+00 3.150446748843936717e+00 -2.134458366171282595e+00