1.463100000000000067e+00 3.142520000000000202e+00 3.730490000000000084e+00 8.224159999999999471e+00 4.377119999999999678e+00 4.967130000000000045e+00 1.048039999999999949e+01 5.600439999999999863e+00 7.625709999999999766e+00 7.426149999999999807e+00 1.081840000000000046e+01 3.300670000000000215e+00 5.582099999999999618e+00 1.756459999999999910e+00 9.627199999999999647e-02 8.943050000000000166e-01 4.700199999999999712e+00 1.015840000000000076e+00 9.389789999999999637e+00 3.431950000000000056e+00 6.785680000000000156e+00 1.034769999999999968e+01 1.125869999999999926e+01 3.884799999999999809e+00 1.311660000000000048e+00 7.598250000000000171e+00 2.263510000000000133e+00 5.226549999999999585e+00 1.103219999999999956e+01 1.263770000000000060e+00 1.981449999999999934e+00 9.076260000000000439e-01 2.600670000000000037e+00 3.909299999999999997e+00 7.280599999999999739e+00 3.540570000000000217e+00 5.993649999999999700e+00 5.399009999999999643e+00 2.513809999999999878e+00 9.756230000000000402e+00 1.061609999999999943e+01 1.536129999999999995e+00 5.358839999999999826e+00 9.647919999999999163e+00 4.447610000000000063e+00 8.187659999999999272e+00 7.006240000000000023e+00 6.632710000000000328e+00 1.896020000000000039e+00 2.010590000000000099e+00 8.765330000000000510e+00 5.202849999999999753e+00 5.233310000000000350e+00 4.993409999999999904e+00 1.173599999999999977e+00 5.589809999999999945e+00 8.249639999999999418e+00 3.355970000000000120e+00 3.859900000000000109e+00 9.870010000000000616e+00 8.487970000000000681e+00 9.118530000000000246e-01 6.661800000000000388e+00 1.032140000000000057e+01 2.081189999999999873e+00 8.802759999999999252e+00 5.791369999999999685e+00 8.219419999999999504e+00 1.088480000000000025e+01 1.156709999999999994e+01 9.463139999999999885e-01 1.042239999999999966e+01 1.054529999999999923e+01 7.654589999999999783e+00 5.538260000000000183e+00 9.532969999999999500e-01 7.942870000000000097e+00 7.200870000000000104e+00 3.779920000000000169e+00 8.925980000000000025e-01 1.012170000000000059e+01 3.031019999999999825e+00 1.006550000000000011e+01 2.711879999999999846e+00 6.356390000000000207e+00 8.821460000000000079e+00 8.270319999999999894e+00 9.592430000000000234e+00 1.126299999999999990e+01 8.859209999999999141e+00 8.479960000000000164e+00 1.109989999999999988e+01 1.125799999999999912e+01 1.012369999999999948e+01 6.034950000000000259e+00 7.374910000000000077e-01 4.080020000000000202e+00 3.419369999999999798e+00 3.586149999999999949e+00 5.629559999999999675e+00 4.595640000000000391e+00 1.173620000000000019e+01 1.514049999999999896e+00 6.205370000000000275e+00 4.539930000000000021e+00 1.720029999999999948e+00 9.794050000000000367e+00 4.945120000000000182e+00 1.099929999999999986e+01 2.316219999999999946e+00 9.477989999999999471e-01 1.129199999999999982e+01 4.764339999999999797e+00 3.873339999999999783e+00 1.891899999999999971e-01 2.811929999999999819e+00 6.639949999999999797e+00 8.847979999999999734e+00 1.872379999999999933e+00 3.565020000000000078e+00 8.127769999999999939e+00 4.232249999999999623e+00 1.337630000000000097e+00 4.600020000000000220e-01 1.056259999999999977e+01 2.455110000000000070e-01 5.262979999999999769e+00 5.744219999999999882e-01 3.662380000000000191e+00 1.085670000000000002e+01 8.482430000000000803e+00 2.724209999999999798e+00 3.700639999999999930e+00 6.341680000000000206e+00 9.170049999999999590e-01 7.491480000000000139e+00 8.869939999999999714e+00 1.232550000000000034e+00 8.287089999999999179e+00 9.669389999999999930e+00 5.925769999999999982e+00 7.867370000000000196e+00 7.295460000000000278e+00 4.008659999999999890e+00 6.192289999999999850e+00 2.410789999999999988e+00 6.258989999999999831e+00 3.109319999999999862e+00 4.257869999999999600e+00 6.831190000000000317e+00 3.633100000000000218e+00 6.427810000000000024e+00 9.587030000000000385e+00 2.685540000000000038e+00 2.353099999999999969e+00 4.114990000000000037e-01 1.093740000000000023e+01 1.124239999999999995e+01 6.714610000000000412e+00 6.867499999999999716e+00 4.322000000000000064e+00 8.352809999999999846e+00 1.132820000000000071e+01 4.746760000000000090e+00 1.020190000000000019e+01 7.568270000000000053e+00 2.159219999999999917e+00 1.009399999999999942e+01 4.083050000000000068e+00 7.751210000000000377e+00 6.836020000000000429e+00 1.025319999999999965e+01 8.000439999999999330e+00 9.093260000000000787e+00 4.160289999999999822e+00 4.628209999999999824e-01 6.579570000000000363e+00 1.663429999999999964e+00 1.082869999999999955e+01 8.932829999999999160e+00 8.137859999999999872e+00 6.976580000000000226e+00 1.127970000000000006e+01 6.413230000000000430e+00 1.116580000000000084e+01 8.961520000000000152e+00 1.271279999999999966e+00 7.430399999999999672e+00 1.087359999999999971e+01 3.392119999999999802e+00 9.929500000000000881e+00 1.150699999999999967e+01
3.957660000000000178e+00 3.794000000000000039e+00 1.894480000000000053e-01 1.709920000000000107e+00 6.219940000000000246e+00 1.389269999999999949e-01 2.285379999999999967e+00 3.466040000000000010e+00 3.861759999999999859e+00 6.331030000000000157e+00 7.747150000000000425e+00 4.423799999999999955e+00 7.027210000000000178e+00 2.049760000000000026e+00 1.081359999999999921e+01 9.521369999999999223e+00 3.082650000000000112e+00 1.206830000000000069e+01 7.121999999999999886e+00 7.333000000000000185e+00 1.145149999999999890e+00 9.932010000000000005e+00 1.184140000000000015e+01 8.220319999999999183e+00 3.083699999999999886e+00 7.821139999999999759e+00 1.778880000000000017e+00 8.325789999999999580e+00 7.782600000000000406e+00 6.102879999999999860e+00 1.395280000000000076e+00 1.002399999999999913e+01 4.139149999999999885e+00 7.486729999999999663e+00 9.509890000000000398e+00 2.784660000000000135e+00 9.919190000000000396e+00 6.320079999999999920e+00 1.123230000000000040e+01 6.888620000000000410e+00 1.198029999999999973e+01 8.435989999999999878e-01 9.743909999999999627e+00 7.003899999999999793e+00 4.115929999999999644e+00 1.013069999999999915e+01 6.628709999999999880e+00 8.115600000000000591e+00 5.316419999999999924e+00 1.457759999999999945e+00 6.516740000000000421e+00 5.167620000000000324e+00 1.451330000000000009e+00 4.322169999999999845e+00 1.973470000000000057e+00 5.910650000000000404e+00 3.619969999999999910e+00 3.950159999999999894e+00 2.748499999999999943e+00 2.212619999999999809e+00 4.270299999999999763e+00 1.122240000000000038e+01 8.211380000000000123e+00 1.187809999999999988e+01 4.720850000000000435e+00 6.303300000000000125e+00 4.218350000000000044e+00 1.818769999999999998e+00 9.038230000000000430e+00 1.117820000000000036e+01 1.001370000000000005e+01 2.818579999999999863e+00 4.016939999999999955e+00 9.016000000000000014e+00 4.812879999999999825e+00 1.151929999999999943e+01 9.546430000000000859e+00 7.487409999999999677e+00 2.713890000000000136e+00 6.987849999999999895e+00 6.204690000000000261e+00 3.240099999999999980e+00 9.566369999999999152e+00 1.159270000000000067e+01 7.558589999999999698e+00 4.959039999999999893e+00 8.381009999999999849e+00 3.532139999999999724e-01 2.541729999999999823e+00 1.009619999999999962e+01 2.089230000000000143e+00 1.117800000000000082e+01 9.356130000000000280e+00 9.927139999999999631e+00 9.680609999999999715e+00 9.419269999999999143e+00 4.293829999999999814e+00 5.472050000000000303e+00 2.407649999999999846e+00 1.049360000000000070e+01 7.709099999999999842e-01 1.650889999999999969e+00 6.423460000000000392e+00 1.094999999999999929e+01 6.323489999999999611e+00 2.350690000000000168e+00 3.831249999999999822e+00 6.764509999999999579e+00 9.656900000000000261e+00 1.029030000000000022e+01 5.643390000000000128e+00 7.167500000000000426e+00 4.652590000000000003e+00 1.090230000000000032e+01 9.876649999999999707e+00 2.965689999999999937e+00 5.918339999999999712e+00 7.383779999999999788e+00 1.888200000000000101e+00 7.789049999999999585e+00 8.756280000000000285e+00 9.520910000000000650e+00 5.188589999999999591e-01 1.189669999999999916e+01 1.483020000000000005e+00 4.933360000000000412e+00 2.500750000000000028e+00 7.373640000000000194e-01 3.576169999999999849e+00 1.162219999999999942e+01 7.189040000000000319e+00 1.851069999999999993e+00 8.362560000000000215e+00 4.854680000000000106e+00 2.596350000000000158e+00 7.681820000000000093e+00 1.213840000000000030e+00 3.330410000000000093e+00 9.058209999999999873e-01 1.120529999999999937e+01 1.596819999999999906e+00 7.248709999999999987e+00 4.941270000000000273e+00 4.840600000000000236e+00 2.927560000000000162e+00 5.044499999999999540e-01 1.148090000000000011e+01 1.148799999999999955e+01 4.827490000000000059e+00 3.744769999999999932e+00 3.723069999999999879e+00 4.304829999999999934e+00 9.634850000000000136e+00 1.295469999999999899e+00 7.115899999999999892e+00 8.575900000000000745e+00 8.680240000000000178e-01 3.756979999999999986e+00 5.532909999999999773e-01 8.823060000000000347e-01 1.173479999999999990e+01 6.958339999999999748e+00 1.083840000000000003e+01 4.440380000000000216e+00 9.552979999999999805e+00 6.234519999999999840e+00 1.068979999999999997e+01 1.045369999999999955e+01 5.222209999999999575e+00 3.935989999999999878e+00 7.020150000000000112e+00 1.214209999999999923e+01 8.046480000000000743e+00 5.315610000000000390e+00 4.809120000000000061e+00 1.033530000000000015e+01 1.826000000000000068e+00 4.961769999999999570e+00 7.382690000000000197e+00 1.119069999999999965e+01 6.000710000000000210e-01 9.173640000000000683e+00 1.069539999999999935e+01 5.239069999999999894e+00 7.980610000000000426e+00 7.403769999999999740e+00 1.049119999999999919e+01 4.779200000000000115e-01 1.086359999999999992e+01 7.937269999999999825e+00 7.460969999999999658e+00 9.605850000000000222e+00
1.882570000000000077e+00 2.452370000000000161e+00 1.114610000000000056e+01 4.435410000000000075e+00 2.328349999999999920e+00 1.084249999999999936e+01 9.872640000000000526e+00 3.794700000000000184e+00 4.242420000000000080e+00 5.408299999999999663e+00 6.904719999999999747e-01 7.004830000000000112e+00 7.797200000000000131e+00 2.516420000000000101e+00 1.370940000000000047e+00 8.407569999999999766e+00 8.692449999999999122e+00 1.124519999999999964e+00 9.017659999999999343e+00 4.128280000000000172e+00 -2.024000000000000191e-03 9.958809999999999718e+00 1.515840000000000076e+00 2.227640000000000065e+00 5.671370000000000022e-01 2.444809999999999928e+00 2.314550000000000107e+00 5.524939999999999962e+00 1.033649999999999913e+01 5.470519999999999605e+00 1.723989999999999911e+00 1.495239999999999903e+00 5.871610000000000440e+00 3.455690000000000150e+00 7.490630000000000344e+00 2.334189999999999987e+00 2.309039999999999981e+00 7.235310000000000130e+00 1.176660000000000039e+01 6.222590000000000288e+00 9.861309999999999576e+00 7.042610000000000259e-01 1.121509999999999962e+01 1.075810000000000066e+01 5.846330000000000027e+00 8.632809999999999206e+00 7.956080000000000041e+00 4.859239999999999782e+00 7.446289999999999853e-01 3.713389999999999969e+00 4.442289999999999850e+00 6.964179999999999815e+00 2.403509999999999813e+00 7.275640000000000107e+00 2.494759999999999867e+00 5.319659999999999833e+00 9.754070000000000462e+00 8.900330000000000297e+00 1.093479999999999919e+01 1.094009999999999927e+01 1.125849999999999973e+01 1.232199999999999918e+01 1.033350000000000080e+01 9.185570000000000235e+00 6.592489999999999739e+00 7.937109999999999665e+00 6.306189999999999962e+00 5.332370000000000054e+00 7.926210000000000200e+00 2.915550000000000086e-01 2.552729999999999944e+00 8.048370000000000246e+00 1.200029999999999930e+01 4.920029999999999681e+00 8.837160000000000792e+00 5.907650000000000290e+00 6.036319999999999464e-01 1.167639999999999922e+01 1.332789999999999919e+00 1.207380000000000031e+01 1.057220000000000049e+01 3.813550000000000217e+00 4.053799999999999848e+00 1.205729999999999968e+01 6.319560000000000066e+00 9.878859999999999530e+00 9.792749999999999844e+00 1.178100000000000058e+01 1.005459999999999965e-01 7.881820000000000270e+00 1.154030000000000022e+01 9.410450000000000870e+00 8.201919999999999433e+00 1.177369999999999983e+01 7.727249999999999730e+00 9.749630000000000241e-01 4.691849999999999632e+00 3.192110000000000003e+00 2.209169999999999856e+00 1.379720000000000057e+00 5.125960000000000072e+00 7.304969999999999519e-01 4.158500000000000085e+00 5.029230000000000089e+00 4.929059999999999775e+00 4.434829999999999828e+00 1.022329999999999961e+00 4.565330000000000332e+00 1.671980000000000022e+00 7.265719999999999956e-01 1.376689999999999969e+00 8.115800000000000125e+00 5.355900000000000105e+00 2.388030000000000097e+00 6.752239999999999576e+00 4.438749999999999751e+00 5.461319999999999730e+00 7.890010000000000190e+00 1.443940000000000001e+00 4.582639999999999603e+00 1.135950000000000060e+01 5.916150000000000020e+00 2.711100000000000065e+00 5.565279999999999561e+00 1.141019999999999968e+01 2.861180000000000057e+00 2.581280000000000019e+00 1.083530000000000015e+01 6.352660000000000196e+00 1.715479999999999894e+00 9.017760000000000886e+00 3.928329999999999878e+00 1.067660000000000053e+01 9.231989999999999696e+00 3.274410000000000043e+00 5.267549999999999955e+00 7.709509999999999863e+00 1.091089999999999982e+01 1.105969999999999942e+01 1.065369999999999928e+00 4.495879999999999654e+00 5.884360000000000035e+00 7.967859999999999943e+00 3.574749999999999872e+00 8.522019999999999484e+00 1.217859999999999943e+01 7.110750000000000348e+00 1.103509999999999991e+01 7.119060000000000166e+00 6.260650000000000048e+00 7.988179999999999836e+00 8.951919999999999877e-01 1.012059999999999960e+01 3.194960000000000022e+00 2.748320000000000096e+00 7.780979999999999563e+00 9.892070000000000363e+00 4.131840000000000401e+00 7.458120000000000083e+00 4.315140000000000420e+00 8.637620000000000076e+00 7.403050000000000352e+00 1.159140000000000015e+01 2.488539999999999974e+00 1.064220000000000077e+01 8.941240000000000521e+00 1.117070000000000007e+01 1.620290000000000008e+00 1.891979999999999995e+00 5.752290000000000347e+00 6.642280000000000406e+00 1.911499999999999977e+00 8.429230000000000445e+00 9.184730000000000061e+00 4.589990000000000236e+00 3.100580000000000003e-01 9.139480000000000715e+00 2.672369999999999912e+00 9.973259999999999792e+00 7.413760000000000350e-01 8.935299999999999798e+00 7.330610000000000070e+00 1.027169999999999916e+01 8.206080000000000041e+00 9.196500000000000341e+00 7.477210000000000356e+00 1.168369999999999997e+01 9.438879999999999271e+00 1.103909999999999947e+01 6.715740000000000265e+00 4.515950000000000131e+00 1.101730000000000054e+01
1.165970000000000084e+01 2.035099999999999909e+00 1.607520000000000060e+00 3.603940000000000143e+00 6.329390000000000072e+00 8.671450000000000546e-01 3.753680000000000128e+00 3.518089999999999939e+00 3.413409999999999833e+00 6.072530000000000427e+00 1.213100000000000023e+01 3.769719999999999960e+00 6.899610000000000021e+00 2.255799999999999805e+00 2.731840000000000046e+00 7.779959999999999987e+00 1.141729999999999912e+01 1.088840000000000074e+01 7.558209999999999873e+00 5.247740000000000293e+00 5.963289999999999758e+00 1.834300000000000042e+00 2.000900000000000123e+00 4.620020000000000238e+00 1.807590000000000030e+00 5.924109999999999765e+00 2.802709999999999813e+00 6.379979999999999762e+00 1.227549999999999919e+01 1.412339999999999929e+00 2.594090000000000007e+00 8.479760000000000630e+00 3.149140000000000050e+00 5.266300000000000203e+00 6.926759999999999806e+00 5.371310000000000251e+00 8.031769999999999854e+00 3.142209999999999948e+00 5.100179999999999936e+00 1.045120000000000005e+01 9.638730000000000686e+00 1.163470000000000049e+01 1.038230000000000075e+01 9.244709999999999539e+00 3.230249999999999844e+00 1.223600000000000065e+01 7.237510000000000332e+00 4.761230000000000295e+00 1.158559999999999945e+01 8.047940000000000094e-01 8.125059999999999505e+00 3.830060000000000020e+00 4.321620000000000239e+00 7.785650000000000404e+00 1.167179999999999929e+01 4.719739999999999824e+00 1.010580000000000034e+01 4.878529999999999589e+00 1.689929999999999932e+00 1.045669999999999966e+01 6.587469999999999715e+00 1.057560000000000056e+00 7.966929999999999623e+00 9.347279999999999589e+00 5.523710000000000342e+00 8.823800000000000310e+00 6.957480000000000331e+00 6.740219999999999878e+00 1.200980000000000025e+01 7.007950000000000124e+00 2.222500000000000142e+00 -1.478780000000000094e-01 1.418409999999999949e+00 7.454110000000000014e+00 8.352840000000000487e+00 4.476420000000000066e+00 1.165370000000000061e+01 6.481729999999999769e+00 2.608210000000000139e+00 1.071610000000000085e+01 8.193400000000000460e+00 3.667759999999999909e+00 6.394449999999999967e+00 9.174820000000000420e+00 7.288210000000000299e+00 8.124610000000000554e+00 6.250479999999999592e+00 1.158999999999999986e+01 1.178529999999999944e+01 5.849800000000000111e+00 1.001570000000000071e+01 1.148969999999999914e+01 9.513099999999999667e+00 9.399470000000000880e+00 6.491830000000000211e+00 1.139470000000000027e+01 3.479649999999999910e+00 1.163069999999999915e+01 2.551240000000000174e-01 1.048920000000000075e+00 3.958390000000000075e+00 1.692849999999999966e+00 5.438220000000000276e+00 2.578619999999999912e+00 5.487580000000000346e+00 3.049040000000000195e+00 1.193640000000000079e+01 3.741530000000000022e+00 9.616270000000000095e+00 1.015479999999999938e+00 5.351230000000000153e+00 5.411220000000000141e+00 5.547340000000000160e+00 2.815030000000000143e+00 1.072850000000000037e+01 4.805460000000000065e+00 5.177159999999999762e+00 8.572639999999999816e+00 3.115610000000000213e+00 8.156219999999999359e+00 6.155149999999999899e+00 9.457430000000000447e+00 3.312640000000000029e-01 2.704400000000000137e+00 9.063769999999999882e+00 1.189840000000000053e+01 5.097430000000000128e+00 8.974339999999999762e+00 4.155020000000000380e+00 2.994400000000000173e+00 6.059219999999999828e+00 5.806280000000000108e+00 1.140980000000000061e+01 7.260340000000000238e+00 1.868370000000000086e+00 9.016629999999999256e+00 4.989999999999999644e-03 1.934839999999999893e+00 -9.704100000000000226e-02 1.138359999999999950e+01 1.931340000000000057e+00 8.508720000000000283e+00 7.851289999999999658e+00 4.314149999999999707e+00 2.792539999999999800e+00 1.480110000000000037e+00 6.948710000000000164e+00 1.853300000000000086e-02 3.113090000000000135e+00 7.175259999999999749e+00 2.236540000000000195e+00 3.610110000000000152e+00 9.729359999999999786e+00 1.109529999999999905e+00 7.583290000000000308e-01 1.067849999999999966e+01 1.011159999999999926e+01 3.104989999999999917e+00 1.160120000000000040e+01 6.230959999999999610e+00 4.885299999999999976e+00 8.892079999999999984e+00 8.572190000000000865e+00 5.645870000000000388e+00 2.022250000000000103e+00 4.673969999999999736e+00 3.761550000000000171e+00 4.599329999999999807e-01 4.522949999999999804e+00 8.598910000000000053e+00 7.561709999999999710e+00 1.783239999999999936e+00 9.528520000000000323e+00 5.867049999999999876e+00 5.896449999999999747e+00 1.053439999999999976e+01 9.070589999999999264e+00 7.345040000000000457e-01 7.170799999999999841e+00 1.132290000000000063e+01 1.021119999999999983e+01 7.504889999999999617e+00 7.089310000000000223e+00 9.028480000000000061e+00 1.086350000000000016e+01 6.773670000000000080e+00 3.444349999999999912e-01 9.925810000000000244e+00 8.824289999999999523e+00 7.952689999999999593e+00 8.029009999999999536e+00 8.821389999999999176e+00
2.954439999999999955e+00 9.627919999999999590e+00 1.147359999999999935e+01 5.450660000000000061e+00 5.886660000000000004e+00 2.273330000000000073e+00 1.220480000000000054e+01 1.211369999999999969e+01 2.299090000000000078e+00 2.345099999999999962e+00 3.070469999999999811e+00 5.180089999999999861e+00 3.433260000000000201e+00 9.934559999999999391e+00 5.215950000000000308e+00 1.060319999999999929e+01 6.198839999999999684e+00 9.209199999999999164e+00 7.103320000000000078e+00 9.918120000000000269e-01 3.065929999999999822e+00 1.057249999999999979e+01 -6.746900000000000119e-02 3.952479999999999993e+00 1.141440000000000055e+01 6.451200000000000045e+00 3.086580000000000101e+00 1.034980000000000011e+01 8.940889999999999560e+00 3.067690000000000139e-01 5.942499999999999893e+00 1.034210000000000029e+01 6.438939999999999664e+00 1.538599999999999968e+00 7.573159999999999670e+00 9.033599999999999852e+00 6.562759999999999927e+00 4.065210000000000434e+00 4.296020000000000394e+00 8.911139999999999617e+00 1.023649999999999949e+01 4.709939999999999571e+00 8.639929999999999666e+00 9.682579999999999742e+00 7.184479999999999755e+00 1.099009999999999998e+01 3.611089999999999911e+00 4.038640000000000008e+00 8.798859999999999459e+00 2.845279999999999809e+00 5.097050000000000303e+00 5.859429999999999694e+00 6.560060000000000002e+00 5.972599999999999909e+00 2.454480000000000217e+00 2.355829999999999869e-01 3.761219999999999786e+00 9.239879999999999427e+00 1.085410000000000075e+01 1.151500000000000057e+01 5.840259999999999785e+00 3.967000000000000082e+00 7.363979999999999748e+00 1.117999999999999972e+01 3.338290000000000202e+00 7.000490000000000101e+00 6.106290000000000440e+00 3.331999999999999851e+00 9.835570000000000590e+00 8.866519999999999513e+00 1.134609999999999985e+01 1.836910000000000043e+00 7.334570000000000256e+00 8.597450000000000259e+00 3.276069999999999816e+00 3.109080000000000066e+00 4.711159999999999570e+00 6.406260000000000288e-01 4.763690000000000424e+00 2.013170000000000126e+00 5.754310000000000258e+00 1.086059999999999981e+01 2.910460000000000047e+00 1.911119999999999930e+00 4.110829999999999984e+00 1.147429999999999950e+01 9.051909999999999457e+00 5.742429999999999701e+00 6.180460000000000065e+00 8.593769999999999243e+00 1.283120000000000038e+00 4.821889999999999787e-01 9.861280000000000712e+00 1.142660000000000053e+01 6.621730000000000338e+00 6.310240000000000293e+00 2.943770000000000220e+00 1.732639999999999958e+00 1.171330000000000027e+01 5.687829999999999941e+00 1.111219999999999963e+01 3.989430000000000032e+00 4.570260000000000211e+00 8.189090000000000202e+00 3.728380000000000027e+00 7.753870000000000040e+00 1.540589999999999904e+00 7.034290000000000376e+00 1.429070000000000062e+00 2.670389999999999819e+00 1.963899999999999979e+00 7.057419999999999582e+00 3.249899999999999789e+00 1.807849999999999957e+00 1.129989999999999917e+01 5.324930000000000163e+00 1.196640000000000015e+01 1.082670000000000066e+01 1.292699999999999960e+00 1.229310000000000080e+01 1.152219999999999978e+01 8.986269999999999314e+00 4.285040000000000404e+00 6.385159999999999725e-01 7.303209999999999980e+00 5.479939999999999811e-01 5.395190000000000374e+00 1.070030000000000037e+00 2.345319999999999905e-01 4.108349999999999724e+00 4.268760000000000332e+00 3.459870000000000001e+00 1.041419999999999924e+01 9.220510000000000872e+00 9.474640000000000839e+00 6.926239999999999952e+00 9.977050000000000196e+00 3.552960000000000007e-01 1.014649999999999963e+01 3.046809999999999796e-01 7.865380000000000038e+00 9.014210000000000278e+00 6.264750000000000263e+00 2.131580000000000030e+00 1.883070000000000022e+00 1.140540000000000020e+01 7.198360000000000092e+00 1.718350000000000044e+00 7.934429999999999872e+00 6.506039999999999601e+00 5.789860000000000007e+00 5.754410000000000025e+00 1.159559999999999924e+01 3.722399999999999931e+00 7.780719999999999636e+00 6.887020000000000364e-01 8.778389999999999915e+00 3.395620000000000083e+00 1.106889999999999930e+01 -1.395319999999999894e-01 1.461840000000000028e+00 5.366559999999999775e+00 1.198070000000000057e+01 3.060490000000000155e+00 9.687120000000000175e+00 2.378929999999999989e+00 2.898249999999999993e+00 8.079100000000000392e+00 2.918169999999999931e+00 5.418669999999999654e+00 9.499919999999999476e+00 4.223600000000000243e+00 8.902879999999999683e+00 8.162399999999999878e+00 2.229709999999999859e+00 1.037490000000000023e+01 2.451839999999999797e+00 1.503209999999999935e+00 5.738769999999999705e+00 3.907799999999999940e+00 8.353839999999999932e+00 6.397059999999999746e+00 6.996839999999999726e+00 7.315850000000000186e+00 1.333250000000000046e+00 1.050970000000000049e+01 1.507239999999999969e-01 1.069180000000000064e+01 1.128989999999999938e+01 7.819799999999999862e+00 8.072050000000000836e+00 9.798040000000000305e+00
3.245999999999999996e+00 4.920749999999999957e+00 1.993940000000000046e+00 1.467209999999999903e+00 6.409180000000000099e+00 4.285869999999999957e-01 1.111749999999999972e+01 7.532829999999999693e+00 3.505770000000000053e+00 1.144780000000000086e+01 1.228609999999999980e+00 3.394429999999999836e+00 7.916979999999999684e+00 1.206370000000000076e+01 8.619749999999999801e+00 1.751409999999999911e+00 1.082130000000000081e+01 1.085460000000000091e+00 1.128710000000000058e+01 6.074550000000000338e+00 1.763790000000000080e-01 8.019370000000000331e+00 6.586630000000000429e+00 8.257880000000000109e+00 1.111080000000000068e+00 1.135079999999999956e+01 1.111630000000000074e+01 6.247569999999999624e+00 1.125270000000000081e+01 2.737639999999999851e+00 2.868219999999999992e+00 -2.771839999999999860e-01 9.076639999999999375e+00 2.605080000000000062e+00 1.132469999999999999e+01 5.656649999999999956e+00 5.712790000000000035e+00 6.006630000000000358e+00 4.665499999999999758e+00 3.874429999999999819e+00 2.502310000000000034e+00 1.157419999999999893e+00 9.808429999999999538e+00 2.033900000000000041e+00 1.506310000000000038e+00 9.014720000000000510e+00 4.056790000000000340e+00 5.099779999999999980e+00 1.182890000000000086e+01 1.160629999999999917e+01 6.807159999999999656e+00 1.503689999999999971e+00 7.323780000000000179e+00 2.997529999999999806e+00 1.376769999999999938e-01 4.769669999999999632e+00 2.829959999999999809e+00 1.053659999999999997e+01 4.948570000000000135e+00 8.765240000000000364e+00 7.724179999999999602e+00 2.434910000000000130e-01 1.293260000000000076e+00 1.120359999999999978e+01 3.132150000000000212e+00 5.430629999999999846e+00 1.153020000000000067e+01 1.850950000000000095e+00 1.052319999999999922e+01 1.064719999999999978e+01 1.178009999999999913e+01 1.305970000000000075e+00 1.513109999999999955e+00 5.066989999999999661e+00 7.369209999999999816e+00 1.683659999999999934e+00 2.587309999999999999e+00 4.631999999999999673e+00 5.160750000000000171e+00 9.592959999999999710e+00 1.109709999999999930e+01 4.777860000000000440e+00 6.899460000000000370e+00 1.983209999999999917e+00 5.932579999999999742e+00 5.527639999999999887e+00 8.537829999999999586e+00 1.132080000000000020e+01 7.007649999999999935e+00 6.370009999999999728e+00 9.333299999999999486e+00 7.717469999999999608e+00 1.076999999999999957e+01 1.124900000000000055e+01 1.047400000000000020e+01 3.521240000000000148e+00 6.377939999999999721e+00 3.730809999999999960e+00 1.797709999999999919e+00 2.383399999999999963e+00 2.380580000000000140e+00 1.102849999999999930e+01 3.631409999999999805e+00 9.199410000000000309e+00 2.151590000000000114e+00 4.083520000000000039e+00 1.094580000000000108e+00 6.092979999999999841e+00 5.871929999999999650e-01 2.510569999999999968e+00 1.305490000000000039e+00 7.159200000000000230e+00 5.313439999999999941e+00 1.177149999999999963e+01 6.184149999999999814e+00 3.239390000000000214e+00 4.644120000000000026e+00 9.536970000000000169e+00 4.503230000000000288e+00 2.703050000000000175e+00 2.695260000000000211e+00 1.246589999999999954e+01 3.285200000000000120e+00 6.148439999999999461e-01 9.229749999999999233e+00 5.713829999999999742e+00 8.538790000000000546e+00 1.220079999999999920e+01 3.852669999999999817e+00 2.153099999999999792e+00 9.456260000000000332e+00 8.934459999999999624e+00 1.088209999999999944e+01 9.015399999999999636e+00 1.217919999999999892e+00 8.593510000000000204e+00 2.945019999999999971e+00 1.168939999999999912e+01 8.320320000000000604e+00 6.654720000000000191e+00 5.747790000000000177e+00 4.635869999999999713e+00 7.960860000000000269e+00 7.025459999999999816e+00 6.317079999999999806e+00 9.127279999999999838e-01 1.092779999999999951e+01 1.001479999999999926e+01 9.650109999999999744e+00 7.077060000000000350e+00 3.893320000000000114e+00 3.729109999999999925e+00 7.356799999999999784e+00 4.650050000000000239e+00 4.803779999999999717e+00 1.112049999999999983e+01 9.359209999999999141e+00 1.120640000000000081e+00 6.221589999999999954e+00 2.689239999999999853e+00 5.630110000000000170e+00 4.791789999999999772e+00 1.077919999999999945e+01 1.176309999999999967e+01 9.716989999999999128e+00 8.190160000000000551e+00 1.063299999999999912e+01 1.098440000000000083e+01 7.828310000000000546e-01 4.940380000000000216e+00 1.065060000000000073e+01 1.495410000000000073e-01 2.266119999999999912e+00 7.663599999999999746e+00 7.434660000000000046e+00 7.768559999999999910e+00 1.011879999999999891e+00 3.818459999999999965e+00 7.321200000000000152e+00 1.134670000000000023e+01 7.633949999999999569e+00 3.710059999999999913e+00 8.327349999999999142e+00 5.576859999999999928e+00 1.056250000000000000e+01 8.620290000000000674e+00 1.183730000000000082e+01 8.296350000000000335e+00 9.218809999999999505e+00 3.727300000000000058e+00 1.175210000000000043e+01 1.208999999999999986e+01