-1.050093203088174050e+04
-1.050005264839094707e+04
-1.049835985573602557e+04
-1.049610295017988938e+04
-1.049854228436152516e+04
-1.050185195266286792e+04
-1.049946187125849428e+04
-1.050035737951631199e+04
-1.049905223394485438e+04
-1.049940843959713675e+04
-1.049937669818919312e+04
-1.050153379880218563e+04
-1.050122164293031892e+04
-1.050128396111933398e+04
-1.049967896367497451e+04
-1.049874377924088367e+04
-1.049953697763461423e+04
-1.050907973427184697e+04
-1.050017728122195876e+04
-1.049886344075392481e+04
-1.049858510477843993e+04
-1.050075932230098988e+04
-1.049981205146918364e+04
-1.050116019074929864e+04
-1.050005625976517877e+04
-1.050040695657460492e+04
-1.050009184081575222e+04
-1.049864116340614237e+04
-1.050007395532992450e+04
-1.049919623451239022e+04
-1.049854035918435147e+04
-1.049964922739486428e+04
-1.049758618169760848e+04
-1.050088379901352891e+04
-1.050293542059576612e+04
-1.049767768745671856e+04
-1.049799448196268168e+04
-1.049711467751171222e+04
-1.049913931518009485e+04
-1.050131119126108388e+04
-1.050319669783170866e+04
-1.050041100838421153e+04
-1.050018939375564150e+04
-1.049663333918837088e+04
-1.050134172761942500e+04
-1.049961519992558169e+04
-1.050242383547320060e+04
-1.049906651086175771e+04
-1.050079822370502006e+04
-1.049940963256763462e+04
-1.050267960338906960e+04
-1.050878926651183065e+04
-1.050021033016466936e+04
-1.049824134865577616e+04
-1.050058776890112313e+04
-1.049885276741704001e+04
-1.049738132831423900e+04
-1.050073985460822587e+04
-1.049840059769037543e+04
-1.049898727003864224e+04
-1.049895036149474981e+04
-1.049991022529889051e+04
-1.050089943748684163e+04
-1.050375236181713808e+04
-1.049808467692418890e+04
-1.049900510277421199e+04
-1.049609781994022160e+04
-1.049921895879494332e+04
-1.050065980569292151e+04
-1.050137074635998943e+04
-1.050164731347405359e+04
-1.050231132058393450e+04
-1.049970649740457338e+04
-1.050178282684336773e+04
-1.050222458869392722e+04
-1.049904783748117188e+04
-1.049879261787797805e+04
-1.050058108155193258e+04
-1.049812705540252318e+04
-1.049932730420700318e+04
-1.050015397670798120e+04
-1.050021594509943861e+04
-1.049893982231287373e+04
-1.049661696580027638e+04
-1.049800214800788854e+04
-1.050053160451483382e+04
-1.050044733743663164e+04
-1.049943217407444899e+04
-1.049768590137027422e+04
-1.050626143132760080e+04
-1.050108797549322480e+04
-1.049913710258666470e+04
-1.051156252138651871e+04
-1.050114489997140299e+04
-1.049801480605816869e+04
-1.050205543544308421e+04
-1.049979846026948508e+04
-1.049843075169534859e+04
-1.050250141070390600e+04
-1.049685681871167799e+04
-1.049977395714800514e+04
-1.049571715956906701e+04
-1.050006771438920259e+04
-1.050074463862601624e+04
-1.050202911417982432e+04
-1.050048965685005896e+04
-1.049830369240652726e+04
-1.049954567010423671e+04
-1.050014875168678373e+04
-1.049731560066970451e+04
-1.050211627014737132e+04
-1.050270673736838216e+04
-1.050492389854617250e+04
-1.049982520600585667e+04
-1.049905563860731854e+04
-1.050075306859296870e+04
-1.050038290355443678e+04
-1.049849301030643983e+04
-1.049948396623134067e+04
-1.049764175033607535e+04
-1.049978698569135304e+04
-1.049771997877270223e+04
-1.049874009563623986e+04
-1.050152221327197003e+04
-1.050201025468322041e+04
-1.050028957397493650e+04
-1.050012639897609006e+04
-1.050327565439628961e+04
-1.049987152233351662e+04
-1.050094401377845679e+04
-1.049951624745764821e+04
-1.049837701206024212e+04
-1.049943737439816869e+04
-1.049761811231069441e+04
-1.050829673830837419e+04
-1.050371424936341646e+04
-1.049838297972426699e+04
-1.050114362533333770e+04
-1.049901403845051755e+04
-1.050256012246148566e+04
-1.049829522801196617e+04
-1.049803086294357854e+04
-1.050191178847196170e+04
-1.049945871712552980e+04
-1.049904591828469165e+04
-1.050245207884834053e+04
-1.049863083373586232e+04
-1.049825251003069388e+04
-1.050918784608334499e+04
-1.049760954423313160e+04
-1.050042992862545179e+04
-1.050239648447459695e+04
-1.049840850305663480e+04
-1.049964905283515327e+04
-1.050171060255877092e+04
-1.049887504515122782e+04
-1.050056853143873195e+04
-1.050292649577622797e+04
-1.049581761349406406e+04
-1.049844784367097418e+04
-1.050095369920168741e+04
-1.049880998031053787e+04
-1.049950512011684077e+04
-1.050015315776383613e+04
-1.050028624232855509e+04
-1.049772619723683420e+04
-1.049896905150509883e+04
-1.049931206473016391e+04
-1.050011337988542255e+04
-1.050079484561783829e+04
-1.049842365720151611e+04
-1.049894251022839308e+04
-1.049823528256684585e+04
-1.050020142978532749e+04
-1.049999370062601338e+04
-1.049907382337692070e+04
-1.049955807866730174e+04
-1.049924114908254705e+04
-1.050559887022414114e+04
-1.050042684902409383e+04
-1.049971797388502637e+04
-1.049588947059902239e+04
-1.050149686077081788e+04
-1.049889928983498430e+04
-1.049932843942078580e+04
-1.050182777998186975e+04
-1.049820450125471689e+04
-1.050105066658632495e+04
-1.049980692047813318e+04
-1.050022862455014001e+04
-1.049875749087781514e+04
-1.050899177880246316e+04
-1.050276442834701993e+04
-1.050011628351284890e+04
-1.050041190565695433e+04
-1.049607288717578740e+04
-1.049900802489717353e+04
-1.050113082238943571e+04
-1.050562542450769433e+04
-1.049807800063031391e+04
