-3.019889215739192667e-01 -4.153190350701845279e-01 1.419444347765893844e-01 -7.110869154398957726e-01 5.374670039615366823e-01 -1.645026768314051813e+00 2.199686739101732735e-01 5.187858826267975898e-01 -7.260178257065005858e-02 1.059962988447183507e+00 2.207652016689200594e-02 3.881902971952958664e-02 -1.129089667987742962e-01 3.323922164324744338e-03 1.005913257832676544e-01 -3.040674013678859033e-01 -3.030641569151326098e-01 9.695681435730117703e-02 3.112562058012491861e-01 -3.684344547399752701e-01 1.197064493312942179e+00 3.203357994979512124e-01 4.671067091251519532e-01 5.138323952801173711e-01 8.319416194421269672e-01 4.637976993591511055e-01 -8.873658618055884073e-01 5.872723574806946178e-01 -1.692428654599909266e-01 -7.392698056100917015e-01 -4.976807252334837228e-01 -9.250093831606923667e-01 -4.378670955564896716e-01 7.838388504350481956e-01 4.853718259687185843e-01 2.948587382925877409e-01 2.059052538495115547e-01 4.198719445446479348e-01 3.247174735020061376e-01 3.911614640061666370e-01 7.053667251311166453e-01 -1.157313695808487530e+00 -4.563301873433213141e-01 -1.114331535853442023e+00 6.586538944919476668e-01 -5.616142906129174550e-01 -7.235716781607560710e-01 1.371597146412847801e+00 -7.783531447343958742e-01 -5.748364457198608113e-01 -3.786288787665436639e-01 6.490014590113566406e-01 1.082965105751418688e+00 1.422035505529821942e+00 7.300750264918537402e-02 -2.008437801701414283e-01 -2.371451856760983246e-01 3.849496787733320269e-01 -4.785326915650183199e-01 -1.290256698424417092e-01 -3.284152340656910640e-01 -1.814684609823951538e-03 -1.600629987400767340e-01 -1.084635294363690550e+00 1.676820001540516802e+00 -5.642131616863236276e-01 -1.100986482015485102e+00 4.367342675045082223e-01 -3.847506753888033093e-01 1.600739002174721204e+00 -9.179043966903218665e-01 1.784276686979709536e+00 3.560360810852670754e-01 -1.762131261248148922e-02 9.805416118568438533e-02 -2.101737993145579297e-01 6.097535692848582434e-01 -2.445993279554998373e-02 7.919666217421825749e-01 -6.051687781312198311e-01 4.413036320391910405e-01 -9.057996430164041990e-03 -4.860053457871666427e-01 -5.151158899772328992e-01 -2.354760255050899476e-01 -2.608363586270218359e+00 -5.051086422606605453e-01 -7.531043974895770265e-01 -7.114170450855481498e-01 1.585157088588185381e+00 -3.978884983121220853e-01 1.792423998670854557e-01 -7.469826008673173534e-02 8.095365122914783829e-01 -2.254955172613741232e-01 3.765385718980442942e-01 -8.129828189661850862e-04 -4.228281989571948118e-01 -1.360762003478985349e+00 1.340187521777748414e-01 -7.663754035565467637e-01 -8.274133925579929549e-01 1.124323356951058894e+00 8.965267023621238396e-01 1.115283358243009726e+00 -3.208109393617872285e-01 6.818575862838706092e-01 7.315616383385528110e-01 1.248527694149207876e-03 6.574413622420284542e-02 -2.072843935841524876e-01 -2.794041971565627946e+00 -3.783527422872364210e-01 -5.759559040354139681e-01 1.779511918604921028e-01 -4.970245797072339600e-01 -3.358868598465757360e-01 -1.583285325488225162e-02 -5.389546442494994039e-03 3.496854562818309531e-01 1.167614049285218503e+00 -7.112756344117873164e-01 1.619594444303659730e-01 -5.743124548959984699e-01 1.075240483419660081e-01 4.944323935020419336e-01 -7.648826210622654553e-01 1.160617049147537827e+00 1.261434632008822665e-01 -6.170950972458830730e-01 -9.075047986316425730e-01 2.750818127913610134e-01 -4.382270499987896972e-01 5.502181329696987921e-01 2.352235431748480876e-01 -1.174504605752104469e+00 7.023343660650548381e-01 -9.639888497173615400e-02 -3.669427006869575847e-02 1.007094936844684208e+00 -6.490698503553936349e-02 -4.608825825971528123e-01 -7.923574294223939551e-01 -8.625593443041665864e-01 -3.473956318081710681e-01 2.381432879225330590e-01 -1.763092853829721640e-01 2.245848325223550879e-01 -3.880488865215351857e-01 1.795236785527113132e-01 6.548538040225231338e-01 1.259789640207511718e+00 -3.157978024218116575e-01 -1.719759481183117875e-02 -2.286482039552904522e-01 -3.080865498264815372e-01 2.196111877269061985e+00 -3.223392030796667362e-01 -1.288506291393575198e+00 4.100549584618627674e-02 9.976954979149671443e-01 -2.341709335414364490e-02 -1.526541078762786718e-01 -9.666900506965071527e-01 7.068188841954813340e-01 6.310890975212440912e-01 -8.899616475552034334e-02 9.117738583173207179e-01 5.194199166658773903e-01 6.920751502388725607e-01 -3.449340576434707650e-02 3.596973319840901431e-03 5.757260474129737293e-01 -7.205876558340887361e-02 -7.940708125677420348e-01 -6.020598001910112407e-01 5.919867322335612414e-01 -3.606275571071197450e-01 -1.584231491450842355e-01 -7.324496973697700586e-01 9.662066833025615420e-01 -7.151569717410453109e-01 -1.596510565918959568e+00 -3.128631452758028342e-01 1.512123874907406851e+00 3.864018378376966600e-01 -7.068147704304263979e-01 6.666104303286736199e-01 4.138211103695846882e-01 5.151698831435779224e-01 7.648414834117168992e-02 -3.344095039712500772e-01
-1.715861688793640649e-01 5.315236418985314071e-01 -1.081853874965974960e+00 -2.045255998942387410e-01 6.828068375702789350e-01 -6.924433322112822919e-01 -5.405379295749876967e-01 -4.440948216289117290e-01 9.108760290940981497e-01 -9.421498994823875039e-02 -1.978335325912495557e-01 1.074314886282317361e-01 -2.934667430421504242e-01 -1.117295503575466808e+00 1.986434300864245873e-03 -1.477710687561629710e-01 1.374398620415205607e-01 -2.137574028979705165e-01 -2.123294122033031750e-01 -3.120398780441994702e-01 1.876175112981431636e-01 -5.142576557426632444e-01 1.162265126272640225e+00 -8.708439529040175042e-01 -4.070421397798115737e-01 4.250794568834654896e-01 3.427506768406052284e-01 -1.947764909348586801e-02 2.065979090406231677e-01 5.057365056521581081e-01 1.061604380704071815e+00 1.237574794690650057e-02 4.973387685132987235e-01 -6.437774916123197855e-01 3.609880257700515682e-01 9.842146898301995517e-01 -1.997145516625830897e-01 2.431214578595423670e-01 1.206224305428213794e+00 2.032354203289091221e-02 4.166405820940574656e-01 2.109950096636338188e-02 5.781125453654228918e-02 -2.145138214474324456e-01 -6.823743780188870067e-01 4.249483306223418855e-01 6.488569630138047994e-01 -1.254202118821751810e+00 -1.617592069163207968e+00 -1.388212129248784787e+00 1.945693628643466067e+00 8.688477484111480076e-02 9.964361715875488801e-02 -3.889131371374974666e+00 -3.216604318456152689e-01 1.717821897842280343e+00 5.822509930106094522e-01 1.095610305309418164e+00 -1.841326380760471393e+00 1.512861267293490242e+00 1.522536842702514770e+00 -7.507909188668515643e-01 5.424667711650838636e-02 -9.219204598251264093e-02 9.016982192567114529e-01 1.539310205493063632e+00 4.526864199459813554e-01 -9.486640464467540612e-01 8.669605586922320972e-01 -1.951410219407822444e+00 -1.120451275593174367e+00 5.153508888059915583e-01 1.137600019444979238e-01 2.345576274565930597e-01 -1.380939506852428729e-02 5.797950752728595614e-01 -9.172554502529183251e-01 -9.210360003383320782e-02 1.936791441064755204e-01 -1.960779833540892136e-01 -8.603631079855046659e-02 8.661444905494749547e-01 -2.507293521078691745e-01 1.452724707059689646e-02 5.522770723796550651e-01 -2.449716236929644630e-01 -1.290217617656395976e+00 1.374440272286385989e+00 -1.244966202052965043e+00 1.998256233190642273e-01 -9.391828464365716833e-01 -5.286146957841154626e-01 2.140278829503274027e-01 -2.575242635372298472e-01 -9.347065558362549487e-01 1.014249288495713275e+00 1.799226109189061118e+00 3.996085663256843112e-01 -1.809547545711698013e-01 -8.000923361667895417e-01 9.811818165435058914e-01 2.020061244863913696e+00 -6.732793577032292198e-02 -1.491822958582317726e+00 -6.323293976852835119e-01 -1.164864511566678029e+00 -7.489726347126045292e-02 -7.570279009106472001e-01 -9.919387979413262224e-01 5.618174077625009977e-01 -1.983091866757174526e-01 -5.195464149413142607e-01 3.049739723418501067e-02 1.461809442962710426e+00 -1.421411241682747351e+00 2.139672049157682540e-02 6.213687849172480071e-01 3.034525477583743580e+00 -1.904575518478903162e-01 1.822404604170023257e+00 6.046797543103236139e-01 8.156567662518424133e-02 -5.506845310827933604e-01 1.472964431129588081e-01 -2.681676021754095252e-01 -1.547883291867386379e+00 8.237043191404072040e-01 -4.575401484900811777e-01 5.121375240775161153e-01 -4.261294954137178487e-02 8.855424354450228686e-01 -8.441008805030216777e-01 1.334702844518359521e+00 1.297532920365195852e-01 -3.876195122939344095e+00 9.885377426822228308e-02 -1.699571179176405378e-01 1.534048699987901054e-01 1.428743513672398713e+00 -3.124841646701241316e-01 -2.088822827755854483e+00 -1.791202724670193591e+00 2.431975625130571583e-01 2.976457112731272225e+00 2.492581668801258088e-01 1.310800841108374692e+00 -2.301255598306160832e-01 -7.092876574490276642e-01 -8.225282965553497583e-01 -7.161720432683313931e-01 -8.734058000919299181e-01 1.382885831944008270e+00 1.146969119357416772e-01 5.683680643917295335e-03 -3.142196593026420209e-02 3.800265304439314207e-01 -1.080886625957451913e-01 -7.998707070744590641e-01 5.463434805086549995e-01 3.551187114780338661e-01 1.648467932782440026e-01 4.340325523047306455e-01 -7.174678792606113964e-01 -2.197197911243543855e-01 -5.868573814307860292e-01 -5.327567429737248839e-01 -1.135239746744754613e-01 -1.523423359071836458e+00 4.266329174123060786e-01 3.033986574361557054e+00 -2.049806851534323737e-01 4.365224086041831209e-01 -8.938753807842683141e-01 2.628968406988734796e-01 5.265182182680339107e-01 1.736260821259414389e-01 1.005658718619907299e+00 -1.499472504701825082e-01 -2.289310253028118899e-02 -7.040657469325180273e-02 -8.821166975955904155e-01 -1.939948755744358155e-01 1.617013056731736731e-01 -3.799920776615970386e-01 -1.971989843315378188e-01 -6.142365447533890480e-03 3.093150229159883913e-01 4.494879676158297643e-01 -1.176681815907387740e+00 -2.018387970927850439e-01 1.281522660992322926e+00 -3.382502178705912854e-01
4.175101291825279448e-01 -6.442654869919521854e-01 2.835021756380221580e-01 1.390089548775695238e+00 -1.151586820631494090e+00 -1.581356998118760515e+00 -2.297496645487285272e-01 5.804008271771872625e-03 9.631815233253457342e-02 9.316777963146161134e-01 -5.615746956242644305e-01 -3.605417336836627573e+00 -1.520685134207196976e+00 -6.820555612271356205e-01 4.799447414200981310e-01 2.837834543236479878e-01 -1.861665863632950169e+00 -1.480338354990419769e-01 7.165062866790384843e-01 7.503404615933447763e-01 -4.129412788684769797e-01 5.142643406108774462e-01 2.996127080341072779e-01 -1.163108448108885806e+00 -2.769571754357440962e+00 3.360839091927033895e+00 1.235401184079789827e+00 9.998146011388504839e-02 -1.608533558512411921e-01 -2.359938456813701069e-01 1.427846712890439851e-01 -3.267568725279516584e-01 -6.715469483945024631e-01 -2.427234510904849041e-01 3.097382264960067966e-01 7.204642428824432898e-02 7.835663135001638135e-01 1.319781190223128231e+00 -3.909187518679300699e-01 -6.639143715558464276e-01 -1.982068567699778738e-01 -8.327767137482631199e-01 -1.594906711768197261e-02 4.079137437508094655e-01 3.995442887467021836e-02 1.210799326389847136e-01 -3.000580231012956248e-02 -5.349745765589249136e-02 4.783177473409019886e-02 2.718627916359350749e-01 1.113135458663742305e+00 1.306504013508576145e+00 1.270057083563803868e+00 7.669420746928534705e-01 -8.687243354595021450e-02 -3.479731015777465936e-03 -2.279138968929984022e-01 2.617059057154923485e-01 -6.543683797460499996e-01 3.939562531403102974e-01 -2.069914935122466382e+00 -1.484973025545348380e+00 -1.360674071750937741e-01 -1.681959636755929299e+00 -2.419762885123964424e-01 -4.426107808853719794e-01 1.077585329500928973e-01 5.228708513262708690e-01 7.959214926217960118e-01 3.286677163959329517e-01 9.071366166592327585e-03 -6.077841042648453040e-01 9.495521054779714198e-01 5.677031771147382777e-01 4.659363429670450030e-01 6.892104270987962078e-01 -1.140854007603371301e+00 1.636949904849471116e+00 2.062582663132815242e+00 -7.500411851856038092e-01 4.093293931503123040e-01 -2.202062438420912815e-01 3.211564956263952553e+00 1.832750723282989158e+00 -1.342151844591442655e-01 2.917353621746872627e-01 -3.209019564136259550e-01 -2.695565121020557231e-01 -3.548950255031759760e-01 -5.050639050656889895e-01 1.911594630103753689e-01 -2.172361054724843143e-01 -1.319526136789727078e-01 2.176156002987948701e-01 7.866254120390822058e-01 -2.523943985138226709e-01 4.400165377976525960e-01 8.837601467350059137e-02 -1.143066184761620807e-01 -8.867390268553544397e-01 -1.124801582138686085e+00 6.596108590878337896e-01 -1.375051166397032398e+00 1.375262511076725536e-01 -8.026474984864878648e-01 -1.074472752016297550e+00 1.296426317565439357e+00 -2.483094298143493361e-01 2.499608493735586467e+00 -3.517378136676993172e+00 -2.257376637569156852e+00 -9.886045913643642935e-02 1.725570174323103889e-01 -2.874992126094479405e-01 9.281281312929062777e-01 3.301070199445012010e-01 -4.387376710862238016e-01 -4.972359243869273193e-02 1.641690504854562416e-01 -3.158178570264541518e-01 -6.747654553292965762e-02 -1.234936328628590818e+00 1.130692493697241785e+00 -1.516704038075358807e-01 2.075960112870579161e-02 -1.412008717429238946e-01 -3.385916603701444316e-01 4.527866929691935771e-02 -1.741459591847490385e-01 2.344825512443418913e-01 -3.188167917514450915e-04 -1.992718076985540709e-01 -2.166977164709298423e-02 2.035696637396162967e-01 6.509621822806281599e-02 -1.654864837442743264e-01 -1.828779397343156254e-01 4.752478501687146251e-01 1.116342138524003769e+00 -5.726890603612252439e-01 1.082070361851987128e+00 3.422914778163567706e-01 1.100936088393562884e-01 -4.777572468521776999e-02 6.949162192298833363e-01 -3.424030636934698446e-01 -2.563261294650026056e-01 1.369678589235388877e+00 6.996213380113764924e-01 -6.604356689813326575e-01 1.363384014480825135e-01 1.364087982525837628e+00 4.703833229913458036e-02 -5.153570594535738375e-02 7.995467480763891466e-01 9.490301715366362967e-02 -6.795441076611450359e-01 -1.897468475126005361e+00 -4.157874900658065087e-01 2.572779518545701971e-01 -3.145374476531297425e-01 4.372500307982609136e-01 -1.658170247664321195e+00 2.261300140990227359e+00 7.796278976807697880e-01 2.071152149962714739e-01 1.292531610499753070e+00 -2.551099976706604489e-01 -3.402875600140093937e-01 7.661527460229526632e-02 2.211359547444890772e-01 -3.938230699966593362e-01 1.511325290266132826e-01 -2.136442743589619386e-01 -2.192073188426455932e+00 -2.682985227482803658e+00 3.091605510381784327e+00 1.545685512886828816e-01 -6.212160613895864048e-01 3.256775234216834902e-01 2.557769418301791275e-01 -1.095012266714568416e-01 2.034165802575123916e+00 -3.747254299501159291e-01 3.541782019423670991e-01 -4.345863679252408573e-01 -4.836759263248537055e-03 4.365938852720113034e-02 -5.711294291848025839e-01 -3.709952734866239776e-01 6.840471377343183834e-02 -5.106766232624099233e-01
-1.615622089922563065e+00 -2.301864435534279885e+00 2.819872816565708873e-01 -1.140011714208389176e-01 3.564114621465228061e-01 -5.682600780590395528e-01 -3.916689997698096226e-01 -3.013805985664322340e-01 -1.661796531560177648e-01 -6.839669193157487115e-01 -6.605086883110564688e-01 1.735926577848707408e+00 5.921091167439431757e-01 1.637694496324400451e+00 -3.601447039338058487e-02 4.137702025270307282e-01 2.934693141453096898e-01 4.448579250465878321e-01 -2.442599423384741453e-01 1.925977381176798842e+00 1.133561330602372852e+00 -1.233988620004077941e+00 7.142853677700473636e-01 -6.411693645675401454e-01 1.131505476516207809e+00 2.207159393323881336e+00 1.931626094817749495e+00 -1.015881939001859635e+00 -9.029704010999259900e-01 -1.619534280489732359e+00 -1.874395909595205911e-01 4.803736014270668653e-01 -2.047693404737390699e-01 1.306091094341194969e+00 -2.547601733748079411e+00 3.914797665772862256e-01 1.248075179993173439e-01 -7.365079265963868638e-01 -1.303973019558575253e+00 -2.447638785576941242e-02 7.865415940760894786e-02 -1.599637541581283226e-02 9.615185338019195393e-01 1.408205027415391664e+00 1.888500981527048150e-01 -3.305456501434753114e-01 1.187952503716433079e-02 1.829154778404412096e-01 4.720427129703489433e-01 -3.422179442660012172e-01 8.824591685364071569e-01 5.585397654550434687e-01 -8.459623591903446815e-01 -1.161506136620018781e+00 -1.211292978196430031e-01 3.512656562835281271e-01 -4.226230249250838567e-01 -5.155442357635698913e-01 -7.233356508907335947e-01 -1.118590825347114848e+00 -5.316043745377330154e-01 -2.604779468466173475e-01 2.560021704669325771e-01 8.383822328561381099e-01 7.888699850971386818e-01 5.207322077183769160e-01 -9.187436047615128443e-01 3.379740813912839870e-01 -5.488693322523374718e-01 8.893003598226351114e-01 2.287608182736671492e-01 2.898492008970351974e-01 -5.187709702284737379e-01 -5.770532508637971070e-01 -3.558982699559293250e-01 1.185020931894215312e+00 -7.434966992039575562e-01 -9.038949697960052543e-01 1.816405192058145657e+00 8.746296451957500384e-01 1.591713401644364034e-01 1.722567125833058266e-01 9.200240141348372536e-01 1.144874698723862494e+00 -1.936726649265140709e+00 1.025736463190770609e+00 3.424119597104009483e+00 3.038668553214616264e+00 -1.808720164715040157e+00 -1.505638010077792535e-02 -6.028347306832199104e-01 -1.284091193048449708e-01 1.210804468596165667e-01 3.829190214981280094e-01 5.078175565492841770e-01 -5.907546595996313599e-01 7.384208273468955142e-01 2.503908920879807543e+00 2.349062690449921914e-02 1.312108504175187429e+00 -2.402577631607298037e-01 -1.114745997682718981e+00 2.018423966372080713e-01 -1.269549033579528696e-01 4.304700317672242038e-01 7.901416527197214767e-01 -8.405558434669982981e-01 -7.638037861766290293e-01 -1.862902564252566284e+00 1.848051872404531393e+00 -2.029448342498466396e+00 5.533127127322152727e-01 4.206252777703187173e-01 7.404165176191331854e-01 -1.543242964885507273e-01 1.614935605379033967e-01 -6.643766559038860597e-01 1.046546972162030048e-01 -1.232289635036422082e+00 -3.570043585350541337e-01 4.646235376939137351e-01 -6.671657886110793356e-01 3.134755820483447475e-01 5.421114447084706134e-01 -7.602561780374464950e-01 3.477920959153328884e-01 -2.275734828347089622e-02 2.678807699069595927e+00 -2.253483473165366124e+00 -2.518388859652273659e+00 -1.258441353710782140e+00 -3.654658590322638623e-01 -7.629465803833231918e-01 -4.153241772765031703e-01 1.696315134135486069e+00 7.468540457093530635e-03 -6.797893909025409798e-02 2.901500199666716129e-01 8.459747004855091568e-01 -9.920647819961309066e-01 -2.366170810871809638e-01 1.175104701229481741e+00 -1.371178570818516240e+00 -3.671717859784500160e+00 -6.558143681628324506e-01 4.357582767452433670e-01 1.455466017248120192e+00 1.751296632534918019e-01 1.979927352988725575e+00 1.490967295450907615e-01 -4.362251890789696218e-01 -9.129113143549889842e-02 1.190358027832260968e+00 -3.468428446289245626e-01 8.943222385133521579e-02 -5.558210809744146275e-02 -6.923302036722737141e-01 -2.487593728672243265e-01 -8.438766803075320455e-01 -3.979378634927803748e-01 4.232755709069105365e-02 2.231079908676612822e-01 -6.871941680012842724e-02 -6.685665256122582667e-01 4.695842241294398423e-01 -4.314568211597581693e-02 -4.640954331049964576e-01 5.407029943978137673e-03 -5.382162234221525843e-01 -7.195530439227921793e-01 6.846642024925468917e-01 -6.980298251557784939e-01 7.484944095249775053e-02 -7.810245209168938940e-01 1.839578030612157022e-01 1.184863580380867143e+00 4.251992702906882138e-01 7.713618010236657219e-02 -8.376042170401382103e-01 -2.719741204027322112e+00 1.837666158302911912e+00 -3.309020050413523095e-01 3.358287529151758877e-01 -7.899045970084352941e-01 -1.292904420457849479e+00 1.123679038499341809e+00 -1.944032696002567340e+00 -6.953898164318237374e-01 1.200872297091844620e+00 2.760387773872471917e-02 6.332107718482867798e-01 1.334299181322351702e+00
-5.747906800836255492e-01 1.331100214771568480e+00 -1.471152317622923311e+00 1.930893844637984857e+00 1.881415535440688291e+00 -1.505472945254966222e+00 1.181460468239236450e+00 -8.512408339763584408e-02 -1.915502706905868324e+00 -7.420774502600319122e-01 -1.288328371054952848e-01 5.583942410162279213e-01 -1.066881312828189987e+00 8.444490078707889147e-01 1.096087502055781648e+00 2.369986327960190153e-01 2.464386951556529481e-01 -4.867663923223152639e-02 1.324126868782953048e+00 -1.899793266602631536e-01 3.674492080093369473e-01 -2.192244423896864358e+00 -2.882350623336354944e-01 7.058387796711614870e-01 -1.509684926450508557e-01 7.973170874166564115e-01 4.414789812746543890e-02 5.035968336030005599e-01 -8.883742484646602877e-01 7.611195544783345701e-01 9.336457186727334934e-01 1.900456611217727146e-02 1.529206798518333965e+00 -5.845413317049011903e-01 5.365851155779016723e-01 1.314512485629119709e+00 1.437685810460394897e+00 1.483274554798324207e-01 1.661961082162372039e+00 4.788407097235006793e-01 -4.094738891478640896e-01 -6.411683361262765501e-01 -3.460745990049299836e-01 1.142572532955037912e-01 9.008425561253011193e-02 3.454817026163986560e-01 1.115211367354549843e+00 2.197855085211057879e+00 -4.876282261013077934e-01 2.123124429224518828e-01 -8.428616087802459633e-01 -2.027602804650731061e-01 -2.273261427107856614e-01 -7.085960306991796465e-01 2.413653944017500885e-01 2.063745315981444506e+00 1.085102206697416971e+00 -3.630958161400341111e-01 1.087804950338458143e+00 -5.341898758747107845e-01 -2.146675734163577542e-01 -8.294065117270712495e-01 -6.564453168781211323e-01 -5.211600392840820550e-01 7.766006808210266232e-01 5.716235952120173325e-01 -1.766455856762067622e+00 2.667926276278866027e+00 -3.075743860771518179e-01 -3.629369219647902989e-02 3.395506818485580780e-01 7.151986236122256368e-01 6.862963387780616209e-01 -1.566650288047645723e-01 -6.086773055023810830e-01 3.470629310593594669e-02 4.029129481059984252e-01 -5.878791378262860912e-01 5.183801625482622466e-01 7.524436239776405300e-02 2.438912461454325609e-01 1.901022253912770452e-02 1.113524209461426440e-01 -1.840009461722285078e+00 -3.526283409579495931e-01 2.469102354750659645e-01 -2.167568518435934177e-01 -4.845141059547808937e-01 7.777473928300681072e-01 5.661502308065295974e-01 5.564895677958288725e-03 4.719054160616430182e-02 -8.515488521348408835e-01 1.557630858164870957e-01 -6.259916283976439677e-02 -8.168291892924767206e-02 -7.388090639239476287e-01 6.739082495359904890e-01 -3.387582678548661796e-01 1.549860984417509094e-02 1.219009372998078877e+00 -1.017358266435921532e+00 6.243034420632568304e-01 -2.073590069978349604e+00 -2.231162183977710156e-01 -7.406659146255839543e-01 -3.898208908189150224e-01 5.040750587906275282e-01 -7.973335424768758228e-01 -2.835104031681318637e-01 5.765318311430939202e-01 8.143491031850296213e-01 8.569887921992580537e-01 -8.756112923819653338e-01 -6.087930051445490376e-01 -5.934949413467982549e-01 -3.758438598244052686e-01 -1.179565565210842631e-01 -1.014819044955810989e+00 -3.890397896791239485e-01 -8.555710859172277472e-01 2.125777807684901821e-01 2.427733304917750468e-01 -2.504167059637000259e-01 4.796475218948845765e-01 2.626495005749501788e-01 7.421797801657713245e-02 -1.047035481762294440e+00 1.151879412171020745e+00 -2.099939249375343042e+00 -1.733665035509799557e+00 2.407442158784666442e-01 7.116746696221085688e-01 -7.420383694920107409e-01 -2.418811576955028353e-01 -3.352749372946657314e-01 -5.989811612680824293e-01 2.014233068222444634e-01 -6.967483873411904616e-02 -6.486615591736990538e-01 4.125566418358478371e-01 -9.809025947404075296e-01 4.997000696547868048e-01 -7.556677873393849443e-02 -5.039310770137075957e-02 8.112390968035574357e-01 6.738182609254155242e-01 -7.954504665230148763e-01 -6.867622226705242250e-01 -1.008788265385389904e+00 -1.004581426396166655e-01 -6.046998089149659972e-01 -4.188069936160717516e-02 7.881901854218236192e-01 -8.038224926302814932e-01 2.196478002358944193e-01 1.271539581645448003e+00 2.185026823108116467e+00 1.217623034174591772e-02 1.271396114089159646e+00 -6.540629326907268504e-02 4.247709245043512216e-01 1.663143789615643409e-01 -2.701920888030311801e-02 -3.256183880490199356e-01 2.918011824155650191e-01 4.060851751839253398e-02 -4.620832877725393195e-01 6.109686726379367494e-01 -5.091648146047498269e-01 3.069156694477428449e-01 3.858562497472962094e-01 -6.075110531093290689e-01 7.225252391749266145e-01 -5.440032624130731742e-01 -1.519996592781140299e+00 -1.423795682752668990e+00 5.049173521856097357e-01 -4.187884816733248305e-01 6.676501844462888746e-01 7.041037992592754646e-01 1.532552317949196774e-01 -4.556704422726485237e-01 6.420769639827681452e-01 -4.546484287668324242e+00 -6.462472933071297110e-01 8.522286518101561681e-01 -4.068508497047607086e-01 4.676188728744816725e-01 -5.908719019036948739e-01 -3.873593166542146915e-01 1.232062349517141081e-01
-3.922840076455108016e-01 -1.055011043762398987e-01 -5.603575353886586230e-01 1.390935955935732382e+00 2.110747138615716723e-01 8.972491823498832675e-01 -1.962841858274639029e-01 -2.831602189178371587e-01 4.164600906522756274e-01 6.197957840043969435e-01 -5.829148518463369566e-01 2.627343469792066677e-01 8.493896397016727565e-03 2.023992975815093742e-01 4.497414783873353583e-01 -1.583399996689129230e+00 -2.236150124106724701e-01 9.646485947880342193e-01 -1.509250924237220959e+00 3.602578324728143710e-02 -1.478944817078086671e-01 1.571364148579880160e+00 5.608933532870536975e-01 1.344227239061618118e+00 -6.432596714360395707e-01 3.152172473284449352e-03 -8.597198179750514813e-01 -6.262009161948098868e-01 -3.755229861501263589e-01 4.204165041937846931e-02 3.120763877090613758e-01 4.111759594393114003e-01 -1.286939975348938281e-01 -1.455439791995895571e-01 -6.577900038304275165e-01 4.290276428948648912e-01 -3.611489768278228762e-01 5.204514432533828838e-01 -8.846291796028443732e-02 -1.377103420938774470e-01 -5.848282668174775711e-02 -2.069120978466879035e-02 -3.290230428525462436e-01 -2.157165835053463376e-01 -1.767751692754347681e-01 -1.997083295929376279e+00 2.283036761319461316e-01 1.790662278786111949e+00 -3.690201520396605567e-02 8.666360854735302155e-01 5.637863585618821394e-02 1.708796297311923063e-01 4.832074713292318080e-01 3.028450989259614395e-02 2.011631111825247249e-03 1.309853646704493557e-01 -1.462628596429258743e-01 -1.182743448715719847e-01 1.703232430075228288e-01 -1.785101496873208460e-01 -1.256287283483932538e-01 2.212151447217950428e-01 -8.996341376404367596e-01 1.065441495058989885e+00 -2.452271913469974973e-01 -3.148896887859519156e-01 -2.926018239393666717e-02 3.854027071499981916e-01 2.359923030194745475e-01 4.521439171793720235e-02 3.761601055129974447e-01 -6.060028439960920554e-01 -3.324780912779945474e-01 -2.646421055233967867e-01 3.502495563149783941e-01 2.063680524181829845e-01 -1.395491950733986908e-01 -1.543201827234958745e-01 1.377730255889008326e+00 7.054752256844385450e-01 4.485299745786798242e-01 1.604725754733509868e+00 -4.283966941795760985e-01 5.785496329025014914e-03 -3.088684222972204463e+00 5.653788998587438996e-01 1.488730435702328714e-01 -3.036452262291312043e-01 -3.877043586981908652e-01 5.535148014405352201e-01 2.940827793591152886e-03 7.990834352870858359e-02 1.547706399970027458e-01 -3.549521039933121735e-01 3.916725993142325946e-01 9.563223343170029755e-01 -5.439477265848324805e-02 -4.890294773231187442e-01 7.754704238722045506e-01 1.405354702453007198e-01 -5.321448204218148792e-01 -5.831565355433098174e-01 -4.204010775748289602e-02 1.084625009951053487e-01 1.132036152208284463e+00 -4.987785862824987981e-02 -2.460849113609352434e-01 2.567030531881538957e-01 -2.748612121402942837e-02 -1.250944531118936276e-01 2.081616539821007916e-01 1.997536324306042665e+00 2.061033830589661608e+00 1.408902824812821863e-01 2.449171163059875589e-01 1.525805743259230907e-01 1.410517477596853475e-01 2.519629674036945322e-02 1.199178968551138702e+00 -1.812644696577374148e+00 1.231095614729249728e-02 3.227356671868286120e-01 -5.309410299226372532e-01 2.059292679530192682e+00 -6.331485511518321063e-01 -1.164059756277821434e+00 1.202540943042221117e-01 -1.349592617134415695e+00 1.391465603186544941e-01 9.664853908850280506e-01 1.386950746038839166e-01 5.614312280679762540e-02 -2.111688162372015731e-01 -4.469852558005809606e-01 -1.098000402806290410e+00 1.390027328079240787e+00 -1.186367161508417478e+00 -1.318653504377465646e+00 1.636841404296149327e-01 6.991657385315510620e-01 -1.609665872343761572e+00 3.805232675743055017e-04 -3.253324813777073166e-01 -3.523681453182298529e-01 2.150506677870913375e-01 4.806353397286822760e-01 -4.010823226565869981e-01 -1.494868687384807826e+00 -2.332756754213730910e-01 1.116414129412463818e-01 6.750019968199508225e-02 6.892798468840969361e-01 8.929914355181057806e-01 -1.541493586295929141e+00 -2.686237158758668198e+00 -8.614172602808118917e-01 9.218998909998521452e-02 7.556215074825178846e-02 7.521854852204482578e-01 1.865679869885226994e-01 5.703169605864682329e-02 4.159839223471759051e-02 3.665158975625162352e-01 3.088635372012177305e-01 1.546518550310437522e-02 -2.000061147608461071e-02 -1.102271519374495856e+00 7.071443858554468109e-01 -3.196030350975547774e-01 -1.227804602685363643e-02 -9.360121620205402726e-01 5.800321309841456330e-01 6.433856554908445879e-01 8.094994884059846241e-01 -4.288970308543731402e-01 3.540758720366275480e-01 4.565800985704038251e-01 -1.232934467708770798e+00 1.278701646605954645e+00 6.018181164940383104e-02 1.645076647715342011e+00 -1.346391079480473207e+00 -1.751399476661289756e-01 -1.029266073607838061e+00 -3.680791282833619903e-03 -9.228373152117278488e-01 -1.300022262444016530e+00 -1.303227399642382212e+00 4.290975769007974727e-01 1.413523611410690384e+00 8.708753203625607675e-01 -6.150598119849922663e-01