ITEM: TIMESTEP
0
ITEM: NUMBER OF ATOMS
4
ITEM: BOX BOUNDS xy xz yz pp pp pp
0.0000000000000000e+00 1.3657940670000000e+01 4.2674213200000004e+00
0.0000000000000000e+00 4.1221753799999998e+00 4.2674488400000001e+00
0.0000000000000000e+00 2.5250889600000002e+00 1.2877270000000001e+00
ITEM: ATOMS id x y z c_spin[1] c_spin[2] c_spin[3] fx fy fz c_spin[5] c_spin[6] c_spin[7]
1 0.00000000 0.00000000 0.00000000 1.27370000 -0.33363265 0.80381650 0.00410543 0.00132666 0.00081216 -5.07840572 15.33830339 9.39703172
2 6.82897034 2.06108769 1.26254448 1.27370000 0.33363265 -0.80381650 -0.00410546 -0.00132660 -0.00081216 5.07840604 -15.33830356 -9.39703191
3 3.41448517 1.03054385 0.63127224 0.00000000 0.00000000 0.00000000 -0.00000002 -0.00000004 -0.00000000 0.00000000 0.00000000 0.00000000
4 10.24345550 3.09163154 1.89381672 0.00000000 0.00000000 0.00000000 0.00000005 -0.00000002 0.00000000 0.00000000 0.00000000 0.00000000
