ITEM: TIMESTEP
1
ITEM: NUMBER OF ATOMS
4
ITEM: BOX BOUNDS xy xz yz pp pp pp
0.0000000000000000e+00 1.3657940670000000e+01 4.2674213200000004e+00
0.0000000000000000e+00 4.1221753799999998e+00 4.2674488400000001e+00
0.0000000000000000e+00 2.5250889600000002e+00 1.2877270000000001e+00
ITEM: ATOMS id x y z c_spin[1] c_spin[2] c_spin[3] fx fy fz c_spin[5] c_spin[6] c_spin[7]
1 0.00012829 0.00004146 0.00002538 1.27370000 -0.33363265 0.80381650 0.00130131 0.00043332 0.00026515 -5.07904780 15.33034701 9.39214728
2 6.82884204 2.06104623 1.26251910 1.27370000 0.33363265 -0.80381650 -0.00130133 -0.00043328 -0.00026515 5.07904796 -15.33034706 -9.39214736
3 3.41448517 1.03054385 0.63127224 0.00000000 0.00000000 0.00000000 -0.00000001 -0.00000002 -0.00000000 0.00000000 0.00000000 0.00000000
4 10.24345550 3.09163154 1.89381672 0.00000000 0.00000000 0.00000000 0.00000003 -0.00000002 0.00000000 0.00000000 0.00000000 0.00000000
