ITEM: TIMESTEP
3
ITEM: NUMBER OF ATOMS
4
ITEM: BOX BOUNDS xy xz yz pp pp pp
0.0000000000000000e+00 1.3657940670000000e+01 4.2674213200000004e+00
0.0000000000000000e+00 4.1221753799999998e+00 4.2674488400000001e+00
0.0000000000000000e+00 2.5250889600000002e+00 1.2877270000000001e+00
ITEM: ATOMS id x y z c_spin[1] c_spin[2] c_spin[3] fx fy fz c_spin[5] c_spin[6] c_spin[7]
1 0.00016896 0.00005500 0.00003367 1.27370000 -0.33363265 0.80381650 0.00041052 0.00014596 0.00008923 -5.07924699 15.32765039 9.39049209
2 6.82880138 2.06103269 1.26251081 1.27370000 0.33363265 -0.80381650 -0.00041053 -0.00014594 -0.00008923 5.07924706 -15.32765040 -9.39049213
3 3.41448517 1.03054385 0.63127224 0.00000000 0.00000000 0.00000000 -0.00000000 -0.00000001 0.00000000 0.00000000 0.00000000 0.00000000
4 10.24345550 3.09163154 1.89381672 0.00000000 0.00000000 0.00000000 0.00000002 -0.00000001 0.00000000 0.00000000 0.00000000 0.00000000
