LAMMPS data file via dp-raw_to_lmp_data python script

4 atoms
2 atom types

0.00000000e+00 5.12307051e+00 xlo xhi
0.00000000e+00 2.83444838e+00 ylo yhi
0.00000000e+00 2.52508896e+00 zlo zhi
4.26742132e+00 4.26744884e+00 1.28772700e+00 xy xz yz

Masses

1 58.69
2 16.00

Atoms # spin

1 1 0.00000000e+00 0.00000000e+00 0.00000000e+00 -3.33632650e-01 8.03816499e-01 4.92512224e-01 1.27370000e+00
2 1 6.82897034e+00 2.06108769e+00 1.26254448e+00 3.33632650e-01 -8.03816499e-01 -4.92512224e-01 1.27370000e+00
3 2 3.41448517e+00 1.03054385e+00 6.31272240e-01 0.00000000e+00 0.00000000e+00 1.00000000e+00 0.00000000e+00
4 2 1.02434555e+01 3.09163154e+00 1.89381672e+00 0.00000000e+00 0.00000000e+00 1.00000000e+00 0.00000000e+00
