LAMMPS data file via write_data, version 23 Jun 2022, timestep = 3

4 atoms
2 atom types

0 5.12307051 xlo xhi
0 2.83444838 ylo yhi
0 2.52508896 zlo zhi
4.26742132 4.26744884 1.287727 xy xz yz

Masses

1 58.69
2 16

Atoms # spin

1 1 0.0001689606132246283 5.4999548568617634e-05 3.366613083162842e-05 -0.3336326499999891 0.8038164989999738 0.4925122239999839 1.2737 0 0 0
2 1 6.828801377819627 2.061032693631274 1.262510813901511 0.3336326499999891 -0.8038164989999738 -0.4925122239999839 1.2737 0 0 0
3 2 3.4144851690194393 1.0305438481234195 0.6312722398038189 0 0 1 0 0 0 0
4 2 10.243455502547706 3.091631538696736 1.8938167201638383 0 0 1 0 0 0 0

Velocities

1 0 0 0
2 0 0 0
3 0 0 0
4 0 0 0
