ITEM: TIMESTEP
0
ITEM: NUMBER OF ATOMS
8
ITEM: BOX BOUNDS xy xz yz pp pp pp
0.0000000000000000e+00 2.0000000000000001e-09 0.0000000000000000e+00
0.0000000000000000e+00 2.0000000000000001e-09 0.0000000000000000e+00
0.0000000000000000e+00 2.0000000000000001e-09 0.0000000000000000e+00
ITEM: ATOMS id type x y z fx fy fz
1 1 1.25545e-10 1.27562e-10 9.8873e-11 5.61078e-10 4.45448e-10 -6.15927e-10
2 1 9.6101e-11 3.2575e-10 1.33494e-10 -6.74766e-10 -3.28043e-10 -4.32764e-11
3 2 6.6417e-11 1.31154e-10 1.74354e-10 -9.02949e-10 5.47207e-10 1.25594e-09
4 2 1.29187e-10 3.3436e-11 7.3085e-11 3.36839e-10 -9.72275e-10 -6.38871e-10
5 2 1.88885e-10 3.5113e-10 1.42444e-10 1.26143e-09 9.77365e-12 2.75536e-10
6 2 5.1617e-11 4.0433e-10 9.0904e-11 -5.8163e-10 2.97889e-10 -2.33401e-10
7 3 1.2215e-10 1.14543e-10 1.01968e-10 0 0 0
8 3 9.88935e-11 3.39167e-10 1.32304e-10 0 0 0
ITEM: TIMESTEP
1
ITEM: NUMBER OF ATOMS
8
ITEM: BOX BOUNDS xy xz yz pp pp pp
0.0000000000000000e+00 2.0000000000000001e-09 0.0000000000000000e+00
0.0000000000000000e+00 2.0000000000000001e-09 0.0000000000000000e+00
0.0000000000000000e+00 2.0000000000000001e-09 0.0000000000000000e+00
ITEM: ATOMS id type x y z fx fy fz
1 1 1.25548e-10 1.27564e-10 9.88701e-11 5.50734e-10 4.28993e-10 -6.06468e-10
2 1 9.60978e-11 3.25748e-10 1.33494e-10 -6.64408e-10 -3.14429e-10 -4.67757e-11
3 2 6.63496e-11 1.31195e-10 1.74448e-10 -8.8826e-10 5.41557e-10 1.23609e-09
4 2 1.29212e-10 3.33634e-11 7.30373e-11 3.32706e-10 -9.49296e-10 -6.28494e-10
5 2 1.88979e-10 3.51131e-10 1.42465e-10 1.24036e-09 6.87352e-12 2.72023e-10
6 2 5.15736e-11 4.04352e-10 9.08866e-11 -5.71136e-10 2.86302e-10 -2.26373e-10
7 3 1.22151e-10 1.14545e-10 1.01967e-10 0 0 0
8 3 9.88919e-11 3.39166e-10 1.32306e-10 0 0 0
