# the first line must be comment
8 atoms
3 atom types
2 bonds
1 bond types
0.0000000000e+00 2.0000000000e-09 xlo xhi
0.0000000000e+00 2.0000000000e-09 ylo yhi
0.0000000000e+00 2.0000000000e-09 zlo zhi
0.0000000000e+00 0.0000000000e+00 0.0000000000e+00 xy xz yz

Masses

1 2.6567632104e-26
2 1.6737239586e-27
3 2.6567632104e-26

Atoms

1 1 1 9.6130590000e-19 1.2554500000e-10 1.2756220000e-10 9.8873000000e-11
2 2 1 9.6130590000e-19 9.6101000000e-11 3.2575000000e-10 1.3349400000e-10
3 1 2 1.6021765000e-19 6.6417000000e-11 1.3115370000e-10 1.7435400000e-10
4 1 2 1.6021765000e-19 1.2918700000e-10 3.3436000000e-11 7.3085000000e-11
5 2 2 1.6021765000e-19 1.8888500000e-10 3.5113000000e-10 1.4244400000e-10
6 2 2 1.6021765000e-19 5.1617000000e-11 4.0433000000e-10 9.0904000000e-11
7 1 3 -1.2817412000e-18 1.2554500000e-10 1.2756220000e-10 9.8873000000e-11
8 2 3 -1.2817412000e-18 9.6101000000e-11 3.2575000000e-10 1.3349400000e-10

Bonds

1 1 1 7
2 1 2 8

