2.134570000000000078e-01 1.056250000000000000e+01 9.883459999999999468e+00 5.968210000000000015e+00 3.636229999999999851e+00 1.031160000000000032e+01 8.627639999999999532e+00 7.509019999999999584e+00 1.370940000000000047e+00 3.832679999999999976e-01 1.530610000000000026e+00 1.094330000000000069e+01 3.118689999999999962e+00 1.137930000000000064e+01 9.515819999999999723e+00 3.051719999999999988e+00 3.485269999999999868e+00 1.078279999999999994e+01 3.835760000000000058e+00 1.901559999999999917e+00 9.438900000000000290e+00 1.018769999999999953e+00 1.146669999999999945e+01 4.059730000000000061e+00 9.118869999999999365e+00 1.977929999999999966e+00 6.090499999999999581e+00 1.065760000000000041e+01 3.403750000000000053e+00 9.798439999999999372e+00 6.947729999999999961e+00 5.492099999999999760e+00 4.882080000000000197e+00 6.708300000000000374e+00 8.463340000000000529e+00 2.983109999999999928e+00 1.108929999999999971e+01 1.101490000000000080e+01 5.959999999999999964e+00 6.897999999999999687e+00 6.324589999999999712e+00 6.805019999999999847e+00 2.799850000000000172e+00 3.579590000000000050e+00 1.316109999999999891e+00 8.467639999999999612e-01 3.282289999999999930e-01 1.442499999999999893e+00 9.254269999999999996e+00 5.560220000000000162e+00 7.038789999999999658e+00 7.219870000000000232e+00 7.009789999999999743e+00 1.040540000000000020e+01 4.785969999999999946e-01 5.558569999999999567e+00 1.153889999999999993e+01 7.521720000000000184e+00 2.295389999999999819e+00 4.637649999999999828e+00 1.897620000000000084e+00 6.733850000000000335e+00 9.358819999999999695e+00 1.302570000000000006e+00 4.152050000000000018e+00 5.629940000000000389e+00 4.947779999999999845e+00 2.383960000000000079e+00 1.572869999999999990e+00 8.589130000000000820e+00 4.672469999999999679e+00 1.120350000000000001e+01 2.978009999999999824e+00 3.233290000000000219e+00 3.902989999999999959e+00 5.056000000000000050e+00 9.219390000000000640e+00 4.169640000000000013e-01 3.145109999999999850e+00 6.572070000000000078e+00 5.436039999999999761e-01 7.877530000000000143e+00 8.989179999999999282e+00 8.508139999999999148e+00 5.852759999999999962e+00 3.364040000000000141e+00 3.466359999999999886e+00 9.364869999999999806e+00 1.110100000000000087e+01 7.739600000000000257e+00 3.996579999999999799e+00 4.934450000000000003e+00 8.810510000000000730e+00 1.086940000000000062e+01 1.057890000000000086e+01 1.336319999999999952e+00 1.110130000000000017e+01 7.928270000000000373e+00 2.905159999999999965e+00 1.027130000000000098e+00 3.900069999999999926e+00 8.425300000000000011e+00 7.395179999999999865e+00 1.107099999999999973e+01 5.488400000000000389e+00 8.960039999999999338e+00 1.031550000000000011e+01 2.967810000000000059e+00 9.519310000000000827e+00 2.359779999999999933e-01 1.042559999999999931e+01 3.819119999999999848e+00 1.034479999999999933e+01 3.360549999999999926e+00 7.704869999999999663e+00 1.467530000000000001e+00 1.338119999999999976e+00 1.116489999999999938e+01 3.958349999999999813e+00 1.586629999999999985e+00 1.027020000000000088e+01 6.462760000000000282e+00 9.418549999999999756e+00 8.929249999999999687e+00 8.353300000000000836e+00 6.046800000000000175e+00 1.395199999999999996e+00 5.539760000000000240e+00 3.200180000000000025e+00 1.781309999999999949e+00 8.613810000000000855e+00 2.560140000000000082e+00 5.533570000000000100e+00 5.411749999999999616e+00 1.325579999999999981e+00 5.143089999999999939e+00 3.751949999999999896e+00 6.547729999999999606e+00 3.154209999999999958e+00 1.156859999999999999e+00 4.434939999999999993e-01 8.211399999999999366e+00 4.404969999999999608e+00 1.920560000000000045e+00 4.936939999999999884e+00 9.977350000000000385e-01 4.726429999999999687e+00 8.411739999999999995e+00 3.623549999999999827e+00 8.482300000000000395e+00 1.012459999999999916e+01 4.983410000000000117e+00 4.669979999999999798e+00 8.444799999999999529e-02 1.101140000000000008e+00 7.307520000000000238e+00 1.155369999999999919e+01 8.153420000000000556e+00 1.304000000000000038e-03 4.032759999999999678e+00 8.064840000000000231e+00 9.833180000000000476e+00 5.954390000000000072e+00 9.479079999999999728e-01 7.653279999999999639e+00 5.475030000000000285e+00 8.420120000000000715e+00 6.956000000000000405e+00 8.862830000000000652e+00 9.337389999999999191e+00 1.117629999999999946e+01 8.440899999999999792e-02 8.420439999999999259e+00 8.404640000000000555e+00 6.241220000000000212e+00 1.114310000000000045e+01 1.041900000000000048e+01 1.036759999999999948e+01 1.600579999999999892e+00 3.495049999999999990e+00 1.205749999999999922e+01 7.796000000000000263e+00 5.572600000000000442e+00 1.976690000000000058e+00 9.991450000000000387e+00 6.368299999999999628e+00 4.546940000000000204e+00 5.947729999999999961e+00 3.774410000000000043e+00 2.512739999999999974e+00 6.496400000000000396e+00 6.486939999999999706e+00
2.658319999999999794e+00 1.027810000000000024e+01 1.054470000000000063e+01 8.709360000000000213e+00 5.284550000000000303e+00 6.638969999999999594e+00 6.290379999999999860e+00 8.698760000000000048e+00 4.666610000000000369e+00 7.656030000000000335e+00 1.015879999999999894e+00 5.564849999999999852e+00 9.450210000000000221e+00 1.424949999999999939e+00 1.587599999999999900e+00 5.661859999999999893e+00 5.873179999999999623e+00 1.032089999999999996e+01 4.491200000000000081e+00 3.617560000000000109e+00 1.097439999999999927e+01 3.317790000000000017e+00 8.402609999999999246e+00 5.784110000000000085e+00 3.960940000000000016e-01 9.716659999999999187e+00 4.234829999999999650e+00 4.076069999999999638e+00 5.996920000000000250e+00 6.470919999999999561e+00 6.138890000000000180e-01 9.119949999999999335e+00 9.102240000000000109e+00 4.239399999999999835e+00 3.615180000000000060e+00 5.837559999999999860e+00 2.092210000000000125e+00 1.152570000000000050e+01 2.771510000000000140e+00 5.751140000000000141e-01 2.917390000000000150e+00 4.306280000000000108e+00 1.073329999999999984e+01 5.866629999999999789e+00 7.921560000000000379e+00 1.144919999999999938e+01 4.772029999999999994e+00 5.712089999999999890e+00 4.391779999999999795e+00 5.578529999999999767e+00 1.132069999999999910e+00 9.438169999999999504e+00 3.207980000000000054e+00 4.645850000000000257e+00 1.109159999999999968e+01 7.465309999999999668e+00 4.918269999999999698e+00 1.127909999999999968e+01 3.490429999999999922e+00 9.286839999999999762e+00 6.022170000000000023e+00 9.019479999999999720e+00 2.564020000000000188e-01 6.826830000000000176e+00 6.379010000000000069e+00 5.182920000000000194e+00 6.934560000000000279e+00 2.207209999999999894e+00 1.767349999999999977e+00 7.446209999999999773e-01 6.369740000000000180e+00 1.583180000000000032e+00 8.411820000000000519e+00 2.995540000000000092e+00 7.915230000000000210e+00 1.137829999999999941e+01 2.031289999999999818e+00 7.634290000000000020e+00 9.378690000000000637e+00 5.423449999999999882e+00 9.863630000000000564e+00 1.087340000000000018e+01 6.920189999999999841e+00 2.118990000000000040e-01 5.605919999999999792e-01 9.065459999999999852e+00 1.062380000000000102e+00 2.938689999999999802e+00 6.395959999999999646e+00 1.130749999999999922e+01 6.119239999999999569e+00 2.801010000000000222e+00 4.266670000000000407e+00 9.332679999999999865e+00 9.047259999999999636e+00 5.514409999999999812e+00 1.117779999999999951e+01 2.520999999999999908e+00 1.142070000000000007e+01 5.783350000000000435e+00 1.010009999999999941e+01 9.800110000000000099e+00 1.561819999999999986e+00 6.292349999999999888e+00 9.003000000000000114e+00 4.947149999999999714e+00 7.055400000000000560e-02 6.326279999999999681e+00 6.182909999999999684e+00 5.930279999999999774e+00 2.824840000000000018e+00 1.070780000000000065e+00 3.863659999999999872e+00 7.445800000000000196e+00 3.836580000000000101e+00 3.212470000000000159e+00 2.867739999999999956e+00 6.147820000000000285e+00 4.343880000000000408e+00 8.406050000000000466e+00 9.339349999999999596e+00 7.670659999999999812e+00 3.182999999999999829e+00 7.938190000000000524e-01 1.350589999999999957e+00 2.112490000000000201e+00 1.790219999999999922e+00 6.700400000000000134e+00 4.456179999999999808e+00 2.976960000000000051e+00 1.065230000000000032e+01 7.769470000000000098e+00 9.195769999999999555e+00 2.279589999999999950e-01 7.700000000000000178e+00 9.563370000000000815e+00 4.687070000000000292e+00 2.769579999999999931e+00 3.971600000000000019e+00 1.039199999999999946e+01 4.219750000000000334e+00 3.704289999999999861e+00 9.559870000000000312e-01 1.105790000000000006e+01 1.391060000000000074e-01 1.049310000000000009e+01 6.679719999999999658e+00 6.715250000000000163e+00 3.829549999999999899e-01 1.173230000000000040e+01 1.812249999999999917e+00 9.214940000000000353e-01 5.796059999999999768e+00 8.060919999999999419e+00 6.919439999999999813e+00 1.147250000000000014e+01 9.356820000000000803e+00 8.151759999999999451e+00 8.250809999999999533e+00 1.944239999999999968e+00 3.816520000000000135e+00 1.165080000000000027e+01 1.198649999999999949e+01 1.145170000000000066e+01 1.072039999999999971e+01 7.657969999999999722e+00 3.994850000000000012e+00 1.120979999999999954e+01 3.390330000000000066e+00 9.111800000000000566e+00 1.240050000000000097e+00 4.674009999999999998e+00 5.908489999999999576e-01 2.659949999999999815e+00 3.926569999999999894e+00 8.032939999999999969e+00 8.958920000000000883e+00 1.827860000000000040e+00 2.033879999999999910e+00 9.081229999999999691e+00 9.318410000000000082e+00 1.001679999999999993e+01 1.075630000000000086e+00 7.151460000000000150e+00 1.119849999999999923e+01 2.940890000000000004e+00 1.051909999999999989e+01 1.132959999999999923e+01 3.836549999999999905e+00 8.654420000000000002e+00 1.033230000000000004e+01 1.011899999999999977e+01
8.911459999999999937e+00 7.901589999999999669e+00 3.193239999999999856e+00 1.159549999999999947e+01 4.706739999999999924e+00 1.160619999999999941e+01 6.766090000000000160e+00 8.767789999999999750e+00 1.618780000000000108e+00 1.005230000000000068e+01 6.926249999999999574e+00 5.214839999999999698e+00 6.224140000000000228e+00 2.157280000000000086e+00 6.701449999999999907e-01 1.261339999999999906e+00 1.007799999999999940e+01 4.847839999999999705e+00 2.689639999999999809e+00 1.072480000000000011e+01 1.193030000000000079e+01 9.809519999999999129e+00 4.936180000000000234e+00 9.184100000000000819e+00 8.292780000000000484e+00 8.171989999999999199e+00 6.232059999999999711e+00 1.034399999999999986e+00 1.744220000000000104e+00 1.008360000000000056e+01 6.354849999999999888e+00 1.022979999999999912e+01 5.267619999999999969e+00 6.238360000000000127e+00 7.058670000000000222e+00 3.660449999999999982e+00 9.153040000000000065e-01 6.380720000000000169e+00 2.196130000000000138e+00 1.130910000000000082e+01 2.306340000000000057e+00 1.442879999999999940e+00 3.061150000000000038e+00 1.138879999999999981e+01 4.736110000000000042e+00 8.785199999999999676e-01 2.811240000000000183e+00 7.770019999999999705e+00 7.387609999999999566e+00 7.703929999999999945e-01 3.770249999999999879e+00 1.084909999999999997e+01 4.442359999999999864e+00 5.931670000000000442e+00 4.626979999999999649e+00 1.052239999999999931e+01 2.961889999999999912e+00 1.625550000000000050e+00 6.282029999999999781e+00 5.282259999999999955e+00 5.198339999999999961e+00 -1.539339999999999875e-01 1.058810000000000073e+01 7.207819999999999894e+00 7.820299999999999585e+00 8.828730000000000189e+00 1.018740000000000023e+01 6.405400000000000205e+00 5.396180000000000421e-01 2.150599999999999845e+00 1.107290000000000063e+01 8.925769999999999982e+00 9.507960000000000633e+00 4.664159999999999862e+00 3.114570000000000061e+00 9.375189999999999912e+00 1.195950000000000024e+01 4.861389999999999878e-01 3.231450000000000156e+00 8.533459999999999823e+00 4.548630000000000173e+00 3.096330000000000027e+00 1.353890000000000038e+00 1.243019999999999925e+01 3.293499999999999900e-02 8.943920000000000314e+00 1.145559999999999912e+00 4.002309999999999590e+00 6.629340000000000011e+00 7.901559999999999917e+00 7.635869999999999713e+00 3.360469999999999846e+00 4.418440000000000367e+00 6.876149999999999984e+00 1.211209999999999987e+01 1.689340000000000064e+00 9.962540000000000617e+00 8.225080000000000169e+00 8.053229999999999222e+00 7.462189999999999657e+00 6.113150000000000084e+00 1.199670000000000059e+01 6.167650000000000077e+00 9.532589999999999675e-01 6.352789999999999715e+00 1.309879999999999933e+00 1.177500000000000036e+01 2.424630000000000063e+00 4.599359999999999893e+00 4.490020000000000344e+00 9.257830000000000226e+00 1.003999999999999915e+01 9.777350000000000207e+00 4.337229999999999919e+00 3.236930000000000085e+00 1.784829999999999917e+00 7.764750000000000263e+00 3.953910000000000036e+00 8.561400000000000787e+00 1.241400000000000059e+00 9.868430000000000035e+00 6.077400000000000163e-02 3.875609999999999999e+00 3.433469999999999800e+00 8.810499999999999332e+00 9.507089999999999819e+00 6.299129999999999896e+00 4.703839999999999577e+00 2.230309999999999793e+00 7.775540000000000340e+00 9.371829999999999883e-01 8.771060000000000301e+00 7.248409999999999798e+00 5.914649999999999963e+00 6.966179999999999595e+00 1.015339999999999954e+01 1.584440000000000071e+00 1.067109999999999914e+01 4.685340000000000060e+00 9.113390000000000768e+00 6.510790000000000077e+00 8.541799999999999393e-02 5.449439999999999840e-01 6.468790000000000262e+00 3.798939999999999984e+00 5.441760000000000375e+00 4.153480000000000061e+00 8.556639999999999802e+00 1.042109999999999914e+01 8.161929999999999907e+00 9.600350000000000605e+00 2.336409999999999876e+00 6.771169999999999689e+00 1.311059999999999892e+00 8.799329999999999430e+00 7.191799999999999748e+00 4.624850000000000350e+00 3.632760000000000211e+00 6.134759999999999991e+00 1.932909999999999906e+00 3.564400000000000013e+00 1.722129999999999939e+00 1.655459999999999987e-01 1.093999999999999950e+01 1.160280000000000022e+01 7.664909999999999890e+00 1.062139999999999951e+01 1.140869999999999962e+01 3.191979999999999817e-01 2.140639999999999876e+00 4.022809999999999775e+00 5.924879999999999924e+00 2.738589999999999858e+00 1.076200000000000045e+01 9.758750000000000480e-01 7.110210000000000363e+00 1.111090000000000089e+01 4.446909999999999918e+00 1.087450000000000028e+00 2.819850000000000190e+00 5.435659999999999936e-01 5.512129999999999974e+00 8.197459999999999525e+00 9.585549999999999571e+00 7.437479999999999869e+00 1.054420000000000002e+01 3.465829999999999966e+00 5.976390000000000313e+00 1.167590000000000039e+01 8.968339999999999534e+00 3.418410000000000171e+00 9.333120000000000305e-01
1.131540000000000035e+01 2.482540000000000191e+00 2.407599999999999962e+00 5.034060000000000201e+00 2.140760000000000218e+00 8.232009999999999605e-01 5.132569999999999633e-01 7.143869999999999720e+00 1.500639999999999974e+00 6.122729999999999784e+00 3.436999999999999833e+00 2.351789999999999825e+00 1.046320000000000050e+01 7.306169999999999831e+00 1.143709999999999916e+01 1.055659999999999954e+01 2.111850000000000005e+00 6.682280000000000442e+00 5.109770000000000145e+00 1.258280000000000065e+00 5.996290000000000120e+00 8.117139999999999134e+00 6.401209999999999845e+00 3.653129999999999988e+00 5.893670000000000186e+00 5.453319999999999723e+00 8.354050000000000864e+00 1.917200000000000015e+00 4.916940000000000310e+00 3.415430000000000188e+00 3.484729999999999772e-01 6.595659999999999634e+00 9.378389999999999560e+00 4.783559999999999590e+00 8.663429999999999964e+00 6.365990000000000038e+00 5.696690000000000254e+00 1.134820000000000029e+01 6.963829999999999742e+00 7.565400000000000347e+00 6.232120000000000104e+00 6.173000000000000043e+00 5.047959999999999781e+00 3.552360000000000184e+00 1.092430000000000057e+01 2.841889999999999805e+00 5.704419999999999824e+00 8.719620000000000815e+00 7.168489999999999585e-01 1.180010000000000048e+01 2.419490000000000141e+00 9.276260000000000616e+00 5.918389999999999596e+00 5.905510000000000481e-01 6.125820000000000043e+00 3.692200000000000149e+00 4.767000000000000348e+00 9.922520000000000451e+00 4.326399999999999579e+00 6.385989999999999611e+00 2.048290000000000166e+00 7.273310000000000386e+00 6.885839999999999961e+00 1.096030000000000015e+01 5.502740000000000187e+00 3.337880000000000180e+00 3.554629999999999956e+00 7.618269999999999875e+00 1.020320000000000071e+01 4.085619999999999585e+00 1.578580000000000094e+00 3.496900000000000119e+00 8.943880000000000052e+00 7.127880000000000216e+00 9.201140000000000541e+00 2.741379999999999928e+00 1.146429999999999971e+01 5.242759999999999643e+00 7.012979999999999769e+00 6.572710000000000496e-01 4.008280000000000065e+00 4.548840000000000217e+00 8.450309999999999988e+00 2.751660000000000217e+00 3.965240000000000098e+00 1.069749999999999979e+01 3.225430000000000241e-01 9.341350000000000264e+00 1.073780000000000001e+01 9.943839999999999790e+00 7.036979999999999791e+00 9.553779999999999717e+00 5.768010000000000304e+00 2.413359999999999950e+00 8.866319999999999979e+00 7.893360000000000376e-01 1.461100000000000065e+00 1.790450000000000097e+00 4.049140000000000406e+00 9.263249999999999318e+00 1.046950000000000003e+01 4.996400000000000396e+00 8.834680000000000311e-01 5.008239999999999803e+00 5.719140000000000335e+00 3.332199999999999829e+00 3.525269999999999904e+00 7.210410000000000430e+00 4.926149999999999807e+00 1.132249999999999979e+01 3.312250000000000139e+00 1.342019999999999991e+00 8.806169999999999831e+00 4.692619999999999791e+00 2.020270000000000010e+00 3.483989999999999920e+00 1.079250000000000043e+01 8.261390000000000455e+00 3.294099999999999806e+00 1.169369999999999976e+01 6.074539999999999829e+00 8.688150000000000261e+00 9.005119999999999791e+00 2.790220000000000145e+00 9.463620000000000587e+00 8.768319999999999226e+00 2.783900000000000041e+00 8.396709999999999452e-01 6.978290000000000326e-01 4.749349999999999739e+00 7.507530000000000037e-01 9.168440000000000367e+00 1.178260000000000041e+01 1.095579999999999998e+01 5.729460000000000441e+00 1.065210000000000079e+01 4.447099999999999831e+00 8.914500000000000313e+00 -1.707029999999999936e-01 9.792270000000000252e+00 8.385949999999999349e+00 7.147599999999999731e+00 9.291969999999999175e+00 3.031369999999999898e+00 7.528639999999999777e-01 1.694939999999999891e+00 8.783870000000000289e+00 2.659520000000000106e+00 6.113179999999999836e+00 1.154459999999999931e-01 1.184909999999999997e+01 9.508860000000000090e-01 1.084070000000000000e+01 9.817520000000000024e+00 5.116629999999999789e-01 1.400630000000000042e+00 9.048489999999999256e+00 3.198900000000000077e-01 7.071360000000000312e+00 7.720699999999999896e+00 1.279679999999999929e+00 9.602600000000000691e+00 9.657410000000000494e+00 8.124340000000000117e+00 6.741279999999999717e+00 1.161899999999999977e+01 1.021630000000000038e+01 1.174230000000000018e+01 1.114499999999999957e+01 4.163429999999999964e+00 1.165840000000000032e+01 6.644750000000000156e+00 8.397360000000000824e+00 6.059750000000000414e-01 6.449209999999999887e+00 6.091730000000000089e+00 1.147499999999999964e+01 4.473180000000000156e+00 5.874970000000000248e+00 4.756809999999999761e+00 7.365429999999999922e+00 1.139230000000000054e+01 1.166840000000000011e+01 7.512839999999999741e+00 3.310220000000000162e+00 7.621450000000000280e+00 9.949820000000000775e+00 8.135389999999999233e+00 2.498040000000000038e+00 9.582570000000000476e+00 2.286090000000000177e+00 4.095390000000000086e+00
3.251430000000000042e+00 7.717710000000000292e+00 1.178619999999999912e+01 8.475210000000000576e+00 5.217520000000000380e+00 2.530110000000000081e+00 2.072700000000000209e+00 3.240349999999999842e+00 9.835539999999999949e+00 1.111170000000000080e+01 6.407519999999999882e+00 7.393819999999999837e+00 9.718590000000000728e+00 2.918909999999999894e+00 6.210519999999999818e+00 6.313039999999999985e+00 8.637019999999999698e+00 6.062199999999999811e+00 2.013090000000000046e+00 6.300239999999999618e+00 1.009399999999999942e+01 3.876580000000000137e+00 9.883699999999999430e-02 6.402599999999999625e+00 5.540079999999999449e-01 6.449799999999999756e+00 6.345530000000000337e-01 7.331010000000000026e+00 5.054219999999999935e+00 1.101360000000000028e+01 2.470489999999999853e+00 4.735179999999999723e+00 4.971579999999999888e-01 8.722720000000000695e+00 1.183999999999999986e+01 6.325490000000000279e+00 5.995339999999999669e+00 5.815109999999999779e+00 1.050119999999999942e+00 1.620500000000000052e+00 1.004390000000000072e+01 1.053159999999999918e+01 1.131380000000000052e+01 1.040869999999999962e+01 6.757970000000000255e+00 7.242440000000000211e+00 7.377030000000000420e+00 1.057109999999999950e+01 9.812269999999999825e+00 5.420079999999999565e+00 5.565820000000000434e+00 4.221599999999999575e+00 1.020199999999999996e+01 1.123520000000000074e+01 9.887159999999999727e+00 6.889560000000000350e+00 4.806929999999999814e-01 3.846729999999999872e-01 6.153380000000000294e+00 4.560940000000000438e+00 9.801560000000000272e+00 8.230299999999999727e+00 5.928989999999999760e+00 9.692899999999999849e+00 4.118590000000000195e+00 2.801999999999999977e-02 1.890889999999999960e+00 1.043130000000000024e+01 8.210390000000000299e+00 3.760879999999999779e+00 1.089520000000000088e+01 2.475800000000000001e+00 2.034520000000000106e+00 2.072540000000000049e+00 9.347400000000000153e-01 9.757699999999999818e+00 7.421350000000000335e+00 3.273410000000000153e+00 3.690630000000000077e+00 5.782250000000000334e+00 7.990249999999999631e+00 1.225840000000000041e+00 1.502000000000000002e+00 7.950490000000000279e+00 1.121679999999999922e+01 5.106349999999999945e+00 9.906000000000000583e+00 3.052969999999999851e-01 8.631169999999999121e+00 7.034300000000000275e-02 8.627969999999999473e+00 9.298689999999999456e-01 1.188219999999999921e+01 6.694880000000000386e+00 9.227309999999999235e+00 3.520500000000000185e+00 4.019219999999999793e+00 3.115310000000000024e+00 7.265670000000000073e+00 6.724160000000000359e+00 2.197109999999999896e+00 7.791269999999999918e+00 7.123700000000000365e+00 2.428339999999999943e+00 1.043190000000000062e+01 4.921439999999999593e+00 8.578160000000000451e+00 8.734080000000000510e+00 3.547709999999999919e+00 7.315389999999999837e+00 3.641830000000000123e+00 1.103560000000000052e+01 4.461339999999999861e+00 2.960370000000000168e+00 7.215939999999999799e+00 3.191969999999999974e+00 3.246630000000000127e+00 1.293390000000000040e+00 1.143989999999999974e+01 1.801269999999999927e+00 6.348200000000000287e+00 4.927019999999999733e-01 4.745029999999999859e+00 8.892599999999999838e+00 1.018619999999999948e+01 1.092409999999999926e+01 6.511610000000000120e+00 5.571349999999999802e+00 8.687799999999999301e+00 3.630860000000000198e+00 1.232969999999999899e+00 4.271790000000000198e+00 1.012110000000000021e+01 1.148399999999999999e+01 8.696410000000000196e+00 3.628060000000000063e+00 1.007889999999999953e+00 1.057949999999999946e+01 1.827499999999999902e+00 7.865859999999999630e+00 6.935050000000000381e+00 3.506720000000000059e+00 9.709030000000000271e+00 4.772800000000000153e+00 4.813439999999999941e+00 4.858319999999999972e+00 1.079250000000000043e+01 6.721820000000000128e+00 1.092629999999999946e+01 8.133729999999999905e+00 4.764499999999999957e+00 2.109039999999999804e+00 1.410619999999999985e+00 6.516239999999999810e+00 1.171979999999999933e+01 8.962909999999999489e-01 8.996549999999999159e+00 1.109259999999999913e+01 2.461050000000000182e+00 1.112759999999999927e+01 1.732499999999999929e+00 1.114380000000000059e+01 3.059229999999999894e+00 4.927830000000000155e+00 2.856040000000000134e+00 7.010640000000000427e+00 6.226589999999999847e+00 4.873910000000000409e+00 9.310990000000000100e-01 4.288289999999999935e+00 7.324410000000000309e+00 8.525760000000000005e+00 7.775249999999999773e+00 7.888239999999999696e+00 6.810130000000000017e+00 8.407539999999999125e+00 1.163669999999999982e+00 4.000429999999999819e-01 8.454829999999999401e+00 3.073020000000000085e+00 9.628019999999999357e+00 3.201229999999999798e+00 8.859439999999999316e+00 1.077949999999999964e+00 2.663499999999999979e+00 4.861539999999999750e+00 1.095350000000000001e+01 5.872910000000000075e-01 4.240529999999999688e+00 1.113819999999999943e+01 8.619920000000000471e+00 9.134660000000000224e+00
1.136219999999999963e+01 1.091960000000000086e+01 1.007070000000000043e+01 2.657930000000000015e-01 2.553420000000000023e+00 1.020839999999999925e+01 4.460860000000000269e+00 9.730679999999999552e+00 3.538949999999999818e+00 9.736969999999999459e+00 5.258079999999999643e+00 6.411389999999999922e+00 7.200630000000000086e-01 3.430030000000000023e-01 7.679990000000000094e+00 1.207060000000000066e+01 1.043959999999999999e+00 3.627159999999999940e+00 2.583250000000000268e-01 6.166399999999999659e-02 8.632560000000000233e-01 1.021950000000000003e+01 3.474689999999999834e+00 3.276009999999999867e+00 9.344829999999999970e+00 7.919270000000000032e+00 7.032210000000000072e+00 3.909650000000000070e+00 4.454419999999999824e+00 6.524269999999999570e+00 1.098850000000000016e+01 9.901360000000000383e+00 6.370919999999999916e+00 6.117230000000000167e-01 4.079679999999999751e+00 8.390700000000000713e+00 7.935690000000000133e+00 1.082559999999999967e+01 6.331019999999999648e+00 2.798740000000000006e+00 5.857870000000000132e+00 4.901069999999999816e+00 3.136109999999999953e+00 5.854849999999999888e+00 8.649190000000000822e+00 2.352679999999999882e+00 7.477810000000000290e-01 1.040850000000000009e+01 3.290500000000000091e-01 5.271810000000000329e+00 2.890709999999999891e+00 3.412209999999999965e+00 3.423420000000000130e+00 1.029909999999999926e+01 9.157090000000000174e+00 1.171049999999999969e+01 1.077679999999999971e+01 3.150910000000000100e+00 1.054059999999999953e+01 6.119880000000000209e+00 1.047809999999999953e+01 2.819420000000000259e-01 5.556709999999999816e+00 9.111950000000000216e+00 4.874039999999999928e+00 9.351150000000000517e+00 2.067579999999999973e+00 7.490689999999999849e-01 5.740409999999999791e+00 7.118249999999999744e+00 2.250719999999999832e+00 9.991519999999999513e+00 1.135410000000000075e+01 8.912039999999999296e+00 1.192009999999999970e+01 8.248369999999999536e+00 5.473440000000000083e+00 4.724039999999999573e+00 7.049599999999999866e+00 5.657659999999999911e+00 7.024869999999999948e+00 7.644589999999999996e+00 4.082080000000000375e+00 1.943119999999999958e+00 1.116360000000000063e+01 4.898570000000000313e+00 1.170700000000000074e+01 5.491970000000000462e-01 3.235230000000000050e+00 5.395719999999999850e+00 1.003270000000000017e+01 6.316220000000000390e+00 1.667759999999999909e+00 1.030480000000000018e+01 7.837259999999999671e+00 4.445890000000000342e+00 6.305640000000000134e-01 6.682000000000000384e+00 9.594189999999999330e+00 1.232839999999999936e+00 7.189549999999999663e+00 4.590000000000000191e-01 4.865380000000000038e+00 9.801790000000000447e+00 9.778050000000000352e-01 5.120730000000000004e+00 6.874889999999999723e+00 2.655260000000000176e+00 9.348259999999999792e+00 9.530079999999999885e+00 9.007849999999999469e+00 7.931110000000000326e+00 1.137899999999999956e+01 1.257560000000000011e+00 6.013119999999999798e+00 1.369620000000000004e-01 4.969699999999999562e+00 1.906490000000000018e+00 8.580849999999999866e+00 7.909220000000000361e+00 3.345159999999999911e+00 1.032450000000000045e+01 9.056259999999999977e+00 4.824550000000000338e+00 8.240650000000000475e+00 5.603010000000000268e+00 7.491889999999999716e+00 3.149700000000000166e+00 7.372429999999999595e+00 8.257999999999999119e+00 9.965529999999999333e+00 3.974819999999999798e+00 6.676809999999999690e+00 5.188900000000000290e+00 1.084839999999999982e+01 6.154860000000000220e+00 1.202030000000000065e+01 9.176119999999999166e+00 5.968530000000000335e+00 8.460789999999999367e+00 8.132120000000000459e+00 6.203359999999999985e+00 2.019660000000000011e+00 2.689329999999999998e+00 4.690990000000000215e+00 2.016509999999999803e+00 1.162889999999999979e+01 1.106739999999999924e+01 1.037950000000000017e+01 2.990299999999999958e+00 8.861019999999999897e+00 7.010250000000000092e+00 1.159779999999999944e+01 4.540700000000000180e+00 7.624030000000000307e+00 1.079800000000000004e+01 2.709620000000000140e+00 1.141849999999999987e+01 1.693319999999999936e+00 4.144099999999999895e+00 2.250140000000000029e+00 7.484810000000000407e+00 9.326859999999999928e+00 2.490819999999999812e+00 1.153159999999999918e+01 1.059299999999999997e+01 2.029619999999999980e+00 7.771390000000000242e+00 8.602529999999999788e+00 8.189410000000000522e+00 1.948649999999999993e+00 2.699669999999999792e+00 2.452820000000000000e+00 3.600200000000000067e+00 8.385770000000000834e+00 1.739300000000000068e+00 4.846490000000000187e+00 3.667580000000000062e+00 5.289889999999999759e+00 6.337730000000000308e-01 5.237840000000000273e+00 4.357479999999999798e+00 4.290470000000000006e+00 1.074480000000000102e+00 3.238329999999999931e+00 1.348770000000000024e+00 1.559409999999999963e+00 7.758339999999999570e+00 3.778439999999999799e+00 2.189429999999999987e-01 6.042609999999999815e+00 5.837530000000000108e+00