-1.049237699110706126e+04
-1.048910115578631849e+04
-1.049475702195288795e+04
-1.049414127079655918e+04
-1.049501390815152445e+04
-1.049257402036993153e+04
-1.049528590723175876e+04
-1.049564931467547285e+04
-1.049887117379347001e+04
-1.049397661374104973e+04
-1.049687970561951443e+04
-1.049704836189409616e+04
-1.049415867820898893e+04
-1.049229378150792218e+04
-1.049405068622504950e+04
-1.049252553677944707e+04
-1.049249261700304487e+04
-1.049223148251252132e+04
-1.049273951285267867e+04
-1.049291073995569968e+04
-1.049454508905417242e+04
-1.049451704267440800e+04
-1.048890131200776523e+04
-1.049297340460097075e+04
-1.049180975858491547e+04
-1.049527064450943180e+04
-1.049468189065491606e+04
-1.049611233757692025e+04
-1.048951281142994048e+04
-1.049438873753817643e+04
-1.049440554548748332e+04
-1.049269574868219388e+04
-1.049633199829749174e+04
-1.049539258774254449e+04
-1.049536247364575684e+04
-1.049218800302448653e+04
-1.049493347473516951e+04
-1.049498743979928440e+04
-1.049634837277413317e+04
-1.049526165392642361e+04
-1.049292106753924782e+04
-1.049475093256063701e+04
-1.049162952165687602e+04
-1.049572165872945334e+04
-1.049536349143876214e+04
-1.049288688012194871e+04
-1.049709336833027373e+04
-1.049787207140297505e+04
-1.049252353861031770e+04
-1.049481779343935705e+04
-1.049286198742643865e+04
-1.049402406417592647e+04
-1.049503139952411220e+04
-1.049907558616473398e+04
-1.049504140737239322e+04
-1.049695255142837232e+04
-1.049311822123705315e+04
-1.049511947650675029e+04
-1.049286677122800938e+04
-1.049432778581748971e+04
-1.049498715685404386e+04
-1.049485315103649009e+04
-1.049420002410922825e+04
-1.049418953908140065e+04
-1.049488816319288344e+04
-1.049500979398042546e+04
-1.049822934086350506e+04
-1.049302129915401747e+04
-1.049408764632610291e+04
-1.049503152614292412e+04
-1.049512941897869860e+04
-1.049202197595646612e+04
-1.049196500024658781e+04
-1.049384898128821624e+04
-1.049231500117825999e+04
-1.049801810388911144e+04
-1.049560348999949565e+04
-1.049414159354912408e+04
-1.049783834363531969e+04
-1.049164253423173614e+04
-1.049372135195036208e+04
-1.049602884388333223e+04
-1.049580997895438304e+04
-1.049353938881093018e+04
-1.049360437852426548e+04
-1.048954060423211740e+04
-1.049957453549194179e+04
-1.049589097708303780e+04
-1.049242534217743378e+04
-1.049332112446698920e+04
-1.049435673141950429e+04
-1.049512098079158568e+04
-1.048861740094478773e+04
-1.049354791101247247e+04
-1.049585419513566558e+04
-1.049246103170782044e+04
-1.049439216701955593e+04
-1.048932742768390744e+04
-1.049485139668680313e+04
-1.049452666884701102e+04
-1.049735888373477974e+04
-1.049382315432156975e+04
-1.049602737645721936e+04
-1.049245150565114818e+04
-1.049393879079881117e+04
-1.049242261560552106e+04
-1.049718804057634406e+04
-1.049477654596824141e+04
-1.049036136843749955e+04
-1.049742307779078146e+04
-1.049498750912867763e+04
-1.049395101870214057e+04
-1.049507152889798817e+04
-1.049719746158774433e+04
-1.049364431258893819e+04
-1.049220008941518972e+04
-1.049271632810292249e+04
-1.049484585721907570e+04
-1.049601537718772670e+04
-1.049655081295411765e+04
-1.049413224193714086e+04
-1.049330279701088148e+04
-1.049509084414338759e+04
-1.049196197041333653e+04
-1.049375991107017217e+04
-1.049090552107049189e+04
-1.049532770927527054e+04
-1.048917454754071514e+04
-1.049555159986941726e+04
-1.049277088053177249e+04
-1.049530052967132906e+04
-1.049871409891432086e+04
-1.049221079256465418e+04
-1.049197556278613411e+04
-1.049205080857688881e+04
-1.049688824327075054e+04
-1.049353833308147296e+04
-1.049361784243235888e+04
-1.049502674072180889e+04
-1.049140975942943442e+04
-1.049281884937154791e+04
-1.049352934875849860e+04
-1.049445780565862879e+04
-1.049502467618144692e+04
-1.049539921565756958e+04
-1.049907239185364597e+04
-1.049117351484087158e+04
-1.049688558815450051e+04
-1.049004251539146208e+04
-1.049433282099813732e+04
-1.049652335061092344e+04
-1.049393427580516254e+04
-1.049406257211645061e+04
-1.049545187449115474e+04
-1.049508123644987245e+04
-1.049324718743464291e+04
-1.049288943833365556e+04
-1.049589854674862909e+04
-1.049474522561088270e+04
-1.049361544350789700e+04
-1.049169976304004012e+04
-1.049163020816413155e+04
-1.049149959311653220e+04
-1.049300962353451723e+04
-1.049493988786019327e+04
-1.049305682211019848e+04
-1.049660164633383647e+04
-1.049347374345938442e+04
-1.049155404513107896e+04
-1.049632920868744441e+04
-1.049593796532473789e+04
-1.049135009346126753e+04
-1.049632456394135079e+04
-1.049415161370367605e+04
-1.049737110513771586e+04
-1.049335856024214263e+04
-1.049085682579703098e+04
-1.049283751128230688e+04
-1.049180104645520805e+04
-1.049541983443921708e+04
-1.049288711138640065e+04
-1.049175970000685084e+04
-1.049557879802886237e+04
-1.049727593410021655e+04
-1.049270915014304592e+04
-1.049128402162122620e+04
-1.049681981681129582e+04
-1.049464396802818555e+04
-1.049352054453260462e+04
-1.049505095096357945e+04
-1.049602411827952892e+04
-1.049253543407565667e+04
-1.049651009421320850e+04
-1.049474786594834950e+04
-1.049541900554913627e+04
-1.049218367117797607e+04
-1.049857958242033601e+04
-1.049675011257911683e+04
-1.049598769653578711e+04
-1.049466396741622520e+04
