3.606599530069267145e-01 1.658695781150079096e+00 6.331794043897434054e-01 7.927482371026055297e-02 1.774981634838259381e-01 2.724716288640539608e-01 -9.272349300553702767e-01 -1.118391307741954499e+00 8.672654915269234488e-01 -4.048623585213689813e-01 5.799791662590644131e-02 -2.262426798394626126e-01 -4.818375875659642871e-01 -1.651212328294661802e+00 -1.923709668190308475e-01 -1.210499535761474510e+00 3.203982258826586715e+00 -1.315411857514237726e+00 1.664915793913023245e+00 -8.940044501628644502e-01 -2.584429186960426339e+00 2.087128984994517100e-01 2.586972007984960076e-01 -1.007795305345273729e-01 3.043912575218295835e+00 -6.090038356036104883e-01 2.535902185932065400e+00 6.755373004977140994e-01 -2.246537380870239353e-01 7.524729345536564917e-01 6.832542095199947152e-01 -1.754530566088667864e+00 -5.093042198180463664e+00 -1.136350463309566267e-01 -2.090229735404615652e-01 -2.819147765474790956e-01 1.492772209868725997e-01 -1.069439046251047687e+00 -1.650604519507806511e+00 -4.046474142972527610e-01 1.436243935808667382e+00 4.862282090090135789e+00 -1.814867158148260717e+00 1.790775407325120527e+00 2.719156535168900213e+00 -9.654790611084835827e-01 -1.176824769243043911e-01 6.700176562353592491e-01 5.947840924708640564e-01 8.922262752179024314e-01 2.473025858171730151e-01 4.479787300613290169e-02 -3.785738571589349344e-01 -1.412152699206158969e-02 6.540279656877605596e-01 -9.313204129754755478e-02 -2.949451273587397893e-01 -8.456836516078781729e-01 -4.335450711457300987e-01 -1.643483077977216711e+00 -7.187097220865464875e-01 -1.404010015500700703e+00 -3.325927624788987264e-02 -6.648420255757169217e-01 -1.624988618731841583e-01 5.491356985396395052e-01 2.597786067872916327e+00 -2.114140994785974059e-01 -6.591907408316064476e-01 -1.301739245133787526e-01 4.920469239908565884e-01 -1.938866321314298702e+00 3.123324695837262355e-01 -6.339203963202496572e-01 3.500022161910550933e-01 3.392457490138667264e-01 4.152434446373016314e-02 8.684548838484090760e-01 -7.986278358072603778e-01 5.685572975842528853e-01 3.014978408704956439e-02 -5.587855629170711547e-01 -7.308823528838694072e-02 -2.817929062577289104e-02 -3.904960625085434622e-01 1.185224049043799077e+00 9.553782252369131811e-01 -6.254465545278753424e-01 1.787045250861628576e-01 3.414615257165393158e-01 6.430205588422259755e-01 2.838549309914761842e-01 6.206488760326479837e-02 1.106480415246247073e+00 5.961493482484448991e-01 -8.332307705661929909e-01 -1.262890904838242179e+00 -6.833179728783449480e-01 -1.563642097351281568e-01 -1.894203688334344104e-01 2.213308443639629489e-02 1.569396226221763113e-01 -3.922269291553746873e-02 -2.434269049148654884e-01 1.003444998799762067e-01 -1.657238479879395765e+00 3.496468897344417459e-01 1.086845414639412644e+00 1.260548115639500866e+00 1.904723099800246011e+00 -2.207492608293324388e-01 7.019908666829743904e-01 -2.506259937608658686e-02 -3.066256490113753452e-01 -5.056691427493847923e-01 -3.955158843167331240e-01 -7.955455973399085112e-02 7.208838469180386399e-01 -2.273575101693289524e-01 -1.920742615144492571e-01 -3.264858782549629468e-01 -4.272808354084460802e-01 8.583730741402173514e-02 3.075219355727024095e-01 -3.037223593239097297e-01 -6.658694383981674791e-01 -5.241543460233862861e-01 1.195655528781653654e-01 -6.037947806028972630e-01 8.262440548411497110e-01 1.984269432004127365e-01 -8.686898826771679571e-01 2.232766552349104705e-01 8.160110642671919434e-01 -2.552579903685089135e+00 -2.637437620795422735e-03 3.626448446458954145e-01 3.929725490715675340e-01 -7.788452538790832103e-01 -4.728900971495863637e+00 -3.916741419761281540e-01 6.229160747985061919e-01 3.938657503091034795e-01 2.317362531157822758e+00 -1.212797587765244378e+00 -3.916983103458254734e-01 -3.462365785039649979e-01 -1.282977391159846992e+00 -1.866214659342358528e+00 -5.374433498124712161e-01 4.064281603453740455e-01 -4.871366311772524771e-01 6.159797526953849495e-02 8.270544665569565801e-01 8.213748996780940725e-01 1.049525852282378491e+00 1.188872958647457345e+00 4.204833528759261557e-02 -5.251164528255910513e-01 1.069291464929704505e+00 4.639601930788180284e-01 2.496104080129479541e-01 -2.104350233955413485e-01 6.937350544385074459e-03 7.196198926049336420e-01 -6.980617068349536103e-01 1.090309719036234526e+00 -2.328802397554749493e-02 -9.751376672366567355e-01 -3.131778483024993953e-01 2.516081551677130934e-03 -4.217987292522167864e-01 7.915022805116155302e-01 -4.487135513442528922e-01 -5.346362193831628584e-01 -8.251132836716956742e-02 2.873053514312377474e-02 4.106339708933338661e-01 -3.992712375911860456e-01 1.348826428392948806e-01 -2.995139776727906988e-01 -4.110078092926940374e-01 3.674929167630448107e-02 5.204555570184377089e-01 4.434258205868656377e-01 5.000003745037914227e-01 -1.053517232826854055e+00 1.572228039241400310e+00 1.425008215002588230e+00 7.877104175723008694e-01 -1.971403631795060896e-01 -2.558767006327594684e-01
-1.147591326321963784e-01 -3.219226843678624217e-01 6.929920056254739169e-01 -7.408088679612402361e-01 -5.318738261488261676e-01 -6.606567838530312820e-01 4.267337046561500147e-01 9.609045543674821221e-01 -1.845532705529062678e-01 -1.699242077972016804e-02 -3.832640635421041830e-02 -3.459043919757852636e-01 1.381710837800214590e-03 -1.404768490932690184e-01 6.583823859983270466e-02 -7.750832157364161423e-01 1.809840137251224723e+00 1.148565260198701532e+00 7.232466907214223362e-01 -1.560891016970845369e-01 1.790202565541231805e-01 -1.349155529597337311e-01 -7.378449002392155620e-01 8.374736049996464038e-01 1.188795311332046856e+00 -1.216691266389666515e+00 -1.496707026143697217e+00 6.831868466172213994e-01 3.559034121622479119e-01 -6.519803391317052776e-02 -5.494349749473803612e-01 -2.288220105288581718e-01 2.250481453116584263e-01 -2.425645569152410086e-01 -6.474757663966366206e-01 7.971499657113027826e-02 1.912210152200086721e+00 -5.265998765043727659e+00 1.624457428819133131e+00 1.668435119917453802e-01 -6.450537872205891476e-02 -4.970662315784143276e-02 1.043936788234723245e+00 1.006798745760734581e+00 -1.742904551823009074e-01 -1.162298550613710679e+00 8.329520629837262602e-01 -1.613153830889648699e+00 -4.620622047266331189e-01 -8.526821944074541859e-01 1.651769229238962688e-01 -8.389663874939277954e-02 -1.704366286568473443e+00 2.196438407370290946e+00 1.923425304180891526e+00 -6.686421160451412327e-01 1.067313258158949951e+00 -1.848195854181451159e+00 2.854839305311364761e+00 5.354414888926513072e-01 3.693163431236102801e-01 -9.264147481475580592e-02 9.417678335529175992e-01 -2.749743406793028755e-01 -5.936440653300368853e-01 2.279933954026835519e+00 6.514064689065526270e-01 8.889712586182464404e-01 -8.796720927117412936e-02 8.259591766111007427e-01 -3.159788080842254043e-01 1.968626840383032317e-01 5.057817570677615171e-01 -3.609396890306570405e-01 -6.675869353085703284e-02 -1.399345005928492647e+00 -3.510889700744219688e+00 -2.632960301753842103e+00 9.215476498670299721e-01 -3.935520757236705691e-01 1.075096501642740093e-01 -3.949384145471575014e-01 2.884026982596210043e-01 -6.153719439085296727e-01 -6.266847978093873506e-01 1.138638745121330759e-01 -4.635287619686898064e-02 -9.709447122044934098e-01 9.670983418782016505e-01 1.452174490983602351e-01 6.398694148102053170e-01 5.674702351685069202e-01 3.411118556868764640e-01 -1.283038069194406106e+00 1.630153450758214939e+00 9.701980638470369955e-01 -1.443068672034675926e+00 -1.124851461539976061e+00 3.342348746446714092e+00 -5.069351539450172028e-01 -3.122440236350468301e-01 -1.391850754439806215e+00 -9.876568827398515271e-01 8.544068904067030346e-01 -3.225690597021068640e-01 2.773246374992692331e+00 1.554309507103705412e+00 3.368068005569682111e-01 8.649952074372739830e-01 2.471467769657202385e-01 -7.862649433761503825e-01 3.189351653408986742e+00 3.269526363224996679e+00 -3.599046143207917048e+00 -1.596966165398785220e+00 2.082097850332426336e+00 1.120527894467320956e-01 -1.117971189485727157e+00 -8.822668500200927522e-01 -2.725107096320751321e+00 -1.111435445254822740e+00 -4.630777904745510543e-01 -2.145783047146673006e+00 -4.186639374362891353e+00 4.848023780410000150e+00 -2.735133370200702796e+00 3.153344896325083746e-01 -6.346012244368284261e-01 -4.133752810817644674e-01 -8.964485408260816079e-01 -5.610167662386993381e-01 9.036172906548024519e-01 -3.732691571206964154e-01 -1.338130639250319498e-01 -3.422112593977870709e-01 4.132086735970427749e-01 4.103300664999062763e-01 -2.263125624233320199e+00 -2.971166810870725858e-02 -3.259631729826800939e+00 1.027043612036951492e+00 5.909145822161390171e-01 -2.617444722628816112e-01 6.409940153320768941e-01 -1.186080226395841208e+00 -1.615701794120500967e-01 1.280867029686705294e+00 1.308861200885009513e-01 7.034671941170361764e-01 -5.245502959099164197e-01 -1.839655163706935825e-01 1.579601448881600367e+00 -9.014477938089969777e-01 -5.673416800105425262e-01 2.052532735103798522e+00 1.400191413088529346e+00 -1.171857397939303665e-02 2.759873553240614896e-01 -3.397250026427576231e-01 -3.435996551038014157e-01 8.244226853631115848e-01 6.836768988793812118e-01 -9.152355916109831957e-02 -9.489057301437269221e-01 2.529132471313665920e-01 -2.485480281875310782e-01 -2.049550255439026802e+00 1.417054764489653396e+00 1.224421030927743681e-01 -1.891005236004192624e-01 -2.453408341066379006e-01 4.072591408864553175e-01 1.860104689794631616e+00 -2.201483940210073431e+00 1.160708066199376498e+00 -9.528240913584786753e-01 7.699836897302884953e-02 1.871974444639790791e+00 -3.082576824527636372e+00 1.877559909143023065e+00 7.391386793489681528e-01 1.082439572265660455e-01 -9.369357022753559139e-02 1.881024727760476800e+00 -1.124290446830620072e+00 1.167839277921971730e+00 -1.456731000002488896e+00 9.699244984708887962e-01 3.460792269906166618e-01 9.767790594935449322e-01 6.822216544912254599e-02 4.043121424452818524e-01
-8.852971522036269247e-01 -1.889457431902302531e+00 -1.879904241003659937e+00 -4.617289897571896784e-02 -1.177016573538726796e+00 -4.293757702626321282e-01 6.005891291838997420e-02 1.167841334804499281e-01 -5.004585450867761187e-01 1.544717235437041758e+00 -1.394337011194835663e+00 -5.283750689696700142e-01 4.415113771744613724e-01 -1.043472447004156090e+00 4.413170531976826183e+00 -3.248474170556764573e+00 -1.164097808604579010e+00 1.977646270265807082e-01 1.396883431763792371e+00 9.754559698077765184e-02 3.129793591386025309e-01 -4.265614407444778822e-02 -4.576203669086509329e-01 2.624407269984162516e-01 -2.951840342643006210e+00 1.211826224991666034e+00 -2.358574229477383710e+00 1.388565398822870500e-01 -3.433965379542178176e-02 5.185488269155114072e-01 2.812540544576057844e+00 1.466194716511188378e+00 -2.075327621493394670e+00 -2.175256116882198776e-02 4.725677322354751575e-01 5.296724476238456880e-01 -1.288102113976935525e-01 -4.192029435026017881e-02 3.287278802098602126e-01 2.751368343989697429e-01 -9.689299957688770615e-01 -7.796381820934068507e-01 2.026905521473932659e+00 2.412567395822386995e+00 4.476033490000732584e-01 -5.173321809005373417e-01 3.698737582885435610e-02 4.096003874233010711e-01 -8.975309752561409782e-02 1.431043622558695771e+00 2.063461466192658911e+00 9.320140966078508393e-01 7.925703167639828184e-01 -8.562107763832580432e-01 1.083047381052515634e+00 -2.954315800764766298e-01 8.626616742099062207e-02 -1.085265728858347378e+00 6.086567366771068466e-01 1.685820919480544508e-02 1.858208244104342377e-01 2.398458724346121673e-01 4.070210567339054702e-02 -1.045645543394384536e+00 2.528921640854603914e-01 7.467033790642189084e-01 1.535699348216162385e-01 -7.484995517312961061e-03 2.696435696550291361e+00 -5.123591531698465928e-01 7.294085965529667481e-01 -2.115976762441704462e-01 6.474058323907039281e-01 7.374612916478500146e-01 9.234939749586092983e-01 1.069955837986063862e+00 7.305979888744523754e-01 5.353571567090266159e-01 -4.805021565850312593e-01 -1.199504470211104623e+00 -1.710421234508591626e+00 -4.425845556331472336e-02 -3.698588458902196674e-01 9.719181318605990549e-02 1.375571043455839915e-01 -5.922001337957818468e-01 5.910822181421243604e-01 -1.676796347391451558e-01 1.611413194050812236e-01 -8.822935894929493372e-01 -1.164828001901816318e-01 -9.041952746450097889e-02 2.109754692796232400e-01 -4.836538148376838264e-01 -1.351052489508258514e+00 -1.761494656105909495e+00 4.331753979334879823e+00 -1.089190774941313222e+00 -9.185554000102531536e-01 -1.095570196100133398e+00 3.793858115366374184e-01 4.820854419105194411e-01 -8.840532524951645599e-02 -1.096235597597756461e+00 -5.128281223861003157e-01 2.225994266627545903e-01 -2.863303891132366052e-01 -3.763189996882412847e-01 -1.428828360076655368e+00 1.480751788378432687e+00 -6.605595961536103733e-01 1.368569929553104858e+00 -2.011938615763098070e+00 1.225684471020216604e+00 3.972380092128227624e-01 -1.586656041730048816e+00 6.071680679478803633e-01 -5.031098666646316442e-01 -3.141954909329447432e-01 -1.482976306831846891e-01 -2.664655318839623255e-01 2.996006238492586071e+00 -1.103132324712224888e+00 1.022622857264875451e+00 1.583645279930525132e-02 1.475813213430076543e+00 -3.475072176852840311e-01 8.011711710524259400e-02 1.582565416603625152e-01 -5.236540093485894110e-01 5.483031753366628402e-01 4.939881068761173832e-01 -6.573925112820020455e-01 -1.509381536277712543e+00 -2.151401421770344491e-01 -2.435708866917855320e-01 2.247853785687794204e-01 -2.250789985495698364e-01 -9.674495545697603394e-01 -7.057225658083617903e-01 2.719631160812104209e+00 3.422477690626489211e-01 -1.493736373553458341e+00 9.471398964939296006e-01 2.485197460527789060e-01 1.273930193362951824e-01 -7.390013824402622555e-01 -1.336532955747139262e+00 2.348063045541591620e+00 -2.407724980132187886e-01 -1.104861648697160526e+00 1.566460026413858397e-01 1.757837518972141244e-01 -8.239280051152650941e-01 3.446836321957563176e-01 -2.292858375387933634e-02 8.398143373158603042e-01 2.801448291326267270e-01 -7.022726595892321289e-01 1.306182111393033585e-01 8.150031918287518051e-01 -1.158461950479424407e-01 -1.393109052325960606e+00 -2.981276388493037666e-01 -1.143469847957628627e+00 -9.667543282754892386e-01 -1.017949105941925447e+00 -5.927313237084903541e-01 8.932207779199141662e-01 1.707019665028856270e+00 1.589085734215573975e-01 5.034729064307228441e-01 -7.181034559615869783e-01 -2.866179927126343063e+00 2.044124713552301909e-01 6.767781148823853732e-01 1.370212864471888337e-01 -4.260312792730331921e-01 1.072413812606341388e+00 -2.299615234490536841e-01 1.714401302199166088e-01 1.490021129488290352e-01 7.629028716296154533e-02 -4.633791237648193229e-01 3.552493235185255616e-01 1.055197705851763201e+00 7.791501867137745618e-01 -3.156296522751944056e-01 3.922768085566648022e-01 1.420740183758173736e-01 -7.351951213232554849e-01 -7.486641023334903444e-01
1.539578114442261336e+00 1.294807551016353031e+00 -1.949356936424816888e+00 5.016427952019431036e-01 -1.299499814282049526e+00 -2.359521938101896976e-01 -1.555877365810237958e-02 -8.553237457933043908e-02 8.140164024362180062e-02 9.034203441528011469e-01 6.862243478896016269e-01 1.732985235834484106e-01 3.151766753205913929e+00 3.533473242454123309e+00 -2.597117066830870069e+00 2.986955955371900284e+00 -2.012495002486767437e-01 -3.564371731781156294e-01 -4.963020997194746431e-01 1.763808134728635180e+00 -7.349318403597445704e-01 -2.321449042519192207e-01 -6.381344343983191836e-01 -3.501117451856406437e-01 9.477600465759492693e-03 2.511777524988486610e-01 1.709783600925088862e-03 7.011598861418931738e-01 -1.517465084610507449e-02 -1.333688801432337145e+00 -1.660449273504712164e-01 6.267958694658686269e-01 -9.771888933371350450e-02 -7.135412905157501040e-01 -3.660181319908784037e-01 5.115929644283794264e-01 -1.469729983355206326e-01 -7.814487529381760611e-01 8.261509809067835164e-01 2.962939280761011165e-03 1.524268223569977820e-01 2.415741679782841267e-01 -2.490555639511740360e-01 5.386322279133248792e-01 -1.439465528067252587e+00 1.068231656207447033e-01 -1.032810596423229477e+00 1.321870982870995692e-01 -3.438027722533850139e-01 -4.812174374839445767e-01 -1.860450246059239601e-02 -3.228372257616204166e+00 -2.517115135147163674e+00 3.185545392291979638e+00 3.660700682746960144e-01 -1.779779313333486879e-01 9.683293860708677148e-01 -1.250875111333635603e+00 2.086827651704248776e+00 -1.339901615106435573e+00 1.403832609382709984e-01 6.304432364076315576e-01 -3.206119359772584554e-01 -2.541458339859282156e-01 -1.498603471833986622e-01 -1.332983290725429371e-01 1.712997479874196260e+00 -4.648899039812157130e-01 8.268966008229763354e-01 1.266252879329324288e-01 1.937950494368960941e+00 1.224390177689832215e-01 -4.092692293363850431e-01 -8.235397685382128685e-02 -8.847320237292159717e-02 5.243610627173929117e-01 -2.026831473702945252e-01 4.185781654348952885e-01 8.069155297309023034e-01 3.301008492969188524e-01 2.196981938578163873e-01 -8.080776683588996034e-01 -6.604068726259486599e-01 -1.393800164855176771e-01 1.223800880845723915e+00 -9.065298363136414794e-02 -4.696685563130644225e-01 3.980422502810473939e-01 -3.893899739294186535e-01 1.310301018654209393e-01 -7.124511427762127980e-01 -9.169206926215791587e-01 1.032687183471583836e+00 -4.544558531402018708e-01 -1.003151893039603559e-01 4.547016506022296123e-01 6.148021874484319721e-02 2.942822969642758801e-01 1.086718402143343809e+00 -5.488276803811570348e-01 6.765179192426656885e-01 -2.710016777658271092e+00 -1.043869425331949818e+00 -8.165669367702295400e-02 8.106518568419766035e-01 3.601339053005368496e-01 -2.201183121140437016e-01 -1.004452871238202261e-01 -9.615925815729071680e-01 -1.426897461604031525e+00 -4.531733868843501600e-01 6.919923607171434288e-01 -6.007449380353524493e-01 -7.893687791100402196e-01 1.872446499179835522e+00 1.025992030844803393e+00 -9.806393137768966428e-02 -6.944806743547004002e-01 -3.122265401335636570e-01 6.182613496389351981e-01 8.395937366647937550e-02 1.464274102451201820e-01 -6.983923507012378407e-01 -8.906270490528265249e-01 2.394386611162444556e+00 -1.255814200502623823e+00 -1.259796325075725587e+00 -1.152527844387792599e-01 -2.363049491636437238e-01 -1.730342141786738730e-01 -6.083024386617573442e-02 1.063773363329245381e-01 2.225346862852037422e+00 1.745105930347989664e+00 2.359938456813701069e-01 -4.132935200012992083e-01 9.330317392382961872e-01 -1.737063005445111663e-01 2.888562408569190221e-01 -5.269630191145902032e-01 9.628729909462313552e-01 7.469388921136095316e-01 5.873119524693477117e-02 1.957322728232915976e+00 3.022036601097827901e+00 1.606167115164605308e+00 -7.889160078436899148e+00 3.050202521987172358e-02 -8.370324036975131943e-01 1.344321855657879983e+00 -3.631699667551479660e+00 -2.803103053319583537e+00 6.465249210262693502e+00 -2.896692236758852124e-01 -6.921630819669201129e-01 2.950248315566775803e-01 -1.937476897167020429e+00 -2.206719734683643352e+00 1.277885064242565427e+00 -1.643469708240788141e-01 -2.000523946177132362e-02 9.437846068710614711e-01 3.907048360850774379e-03 -1.505432321825049602e+00 6.781850225311466529e-01 -1.302474580637343338e-01 -1.019279394716539722e+00 -1.045832205483748500e-01 4.967741542595195403e-01 -6.275173210123642376e-01 1.537828735852683204e+00 -9.136322516808526029e-01 1.525784660213324484e+00 -1.476304808354131914e+00 -2.720792785219469656e-02 -2.910256862806611888e+00 -1.199018531713999414e+00 -2.567436766180706265e-01 5.486698146471769011e-01 -4.744240687164795189e-01 -2.298874756780662221e-01 -7.428842624314156706e-02 6.632901077087718367e-01 -7.968835994240008880e-01 8.152561883796256570e-01 -6.817974224699432373e-01 6.498787194093049724e-01 7.138436522472820789e-01 5.151909661894840120e-01 -1.892312384850373119e+00 3.759729292030014047e-01 1.117838006342076085e+00
-7.072950525005809730e-02 3.549109663427635897e-01 2.794521739415151140e-01 2.478543445551557520e-02 9.306143880479357255e-01 -1.081764914796663923e+00 -2.998271380375917561e-01 -1.867957867284354145e-01 1.855313181946986467e-01 4.382347633082674943e-01 3.277966266455669131e-01 1.141322976819625135e+00 -1.711110290155280489e-01 -7.723969271555941596e-01 -5.927704044765115254e-01 -9.253040315827466833e-02 1.908704710152716311e-01 4.101130653932625880e-01 -2.591178332753551472e-01 1.262601912843138441e-01 -9.424306639473815084e-01 4.596592517139645451e-01 -1.548781121090609059e+00 2.895853028687660924e+00 3.635375316627994513e-01 -2.488189710384566045e+00 9.277116125811019076e-01 3.976278912958969514e+00 -1.540305736636339073e+00 1.387077244314276037e+00 -1.063316735408156077e+00 -2.336891088093862867e-01 -1.604456817343048458e+00 -3.739566701054894415e-02 1.856372476448612252e-01 -3.340984004889764880e-01 -4.154902705405930097e-01 2.478913684406494344e-01 2.384069802625494727e+00 6.582800560925875510e-01 7.424631157339246501e-01 1.026201318641969173e+00 8.996876165861499297e-01 -6.385175287690527668e-01 -1.615550099034103182e+00 4.540886996090559014e-01 2.466735397182221234e+00 -6.751799171585733950e-01 -9.454697078816574063e-01 -4.780364686552761588e-01 -7.438833931191142224e-01 2.881589576801206753e-01 -2.516868309243872059e-01 -5.732531603943726538e-03 -6.962691337122995927e-01 1.090877932834436737e-01 -2.645413182795527396e-01 8.356424653296030680e-01 3.621393657647798414e-01 3.010777226142683505e-01 1.624480568747566744e+00 1.699087297561827858e+00 -3.041889117031938206e+00 1.457373261571678902e-01 3.574645860005662978e-01 6.805041575808223886e-01 3.620627468906331137e-01 3.367358381097719233e-01 -1.704852225065578430e+00 5.560565940238052507e-01 4.028491847476481924e-01 -7.903051748806521060e-01 -5.633883517928246487e-01 -3.669072194633595241e-01 -3.321880708416271033e-01 -2.678606124581907610e-01 8.317904385763610353e-01 1.416446441482166752e-01 -6.180659457988293415e-01 7.316644824649241041e-01 -7.330317951250324426e-02 8.593809465786574064e-02 -4.782622115126614615e-01 -5.542938456977987427e-02 6.514182959810853601e-01 1.028826414967600078e+00 1.131259679054180262e-01 -1.003965390079201381e+00 1.759461427727546434e+00 1.941270302768230982e-01 1.731592212142783138e+00 -2.827745534439442543e-01 6.412464976623187818e-01 3.292153613688608149e-01 9.442540903079469361e-01 1.675408465906069067e+00 -3.684797061555786790e-01 -4.707391636685910319e-01 -6.937761920890560263e-02 -1.651172733306008888e-01 -4.766434449635750803e-01 -2.384776855994297673e+00 -1.088709978650526766e+00 -1.000417781940019069e+00 1.009849102548911359e+00 -5.049960279422838205e-01 4.475735242034255545e-01 7.179903274225782894e-01 1.482046595929449317e+00 2.847198500942599297e-01 -3.738605108473320726e-01 1.203219714276272390e-01 -1.191606555526410149e+00 -1.005771847158915877e+00 -4.335116468046594229e-01 -1.541991351867566973e+00 4.050762743042215508e-01 -7.985069939587738919e-01 2.756119742628057590e-02 -2.674029560958379181e-01 7.517663954054846220e-01 -2.935284495179732445e-01 5.176247724400639960e-02 -2.445509912161052957e-01 1.539643420462507017e-01 8.555536024157446295e-01 6.310901259625077975e-01 -4.228749930346937802e-01 -3.687344510566007205e+00 -7.537466590587665882e-01 1.726536909110995666e+00 -2.622726282738620629e+00 -7.577812341363179827e-02 2.303386014383945302e+00 4.966034330097429672e-01 -3.894300831387035311e-01 -4.779680773112390813e-02 -3.182033265376395526e-01 3.557717716804925101e-01 -2.639427654640709719e-01 8.574577614155116934e-02 -1.976777237397968345e-01 1.748880824006452839e+00 2.392789956100528137e+00 -3.889886761483173583e+00 -8.694190475331412538e-01 -9.257925411830109086e-02 -4.760870582399056028e-01 2.411607345902709587e-01 1.633735511679731967e-01 4.121653199350045482e-01 9.113470551928792851e-01 -1.686381419969268936e-01 -1.911892363849599041e+00 -9.403352148725635518e-01 3.535971326283685046e-01 5.652688566435263295e-01 -6.506906737870075119e-01 7.456636249466036537e-01 1.744520233048304281e+00 2.026080711580433846e-01 3.419217531820515354e-01 7.226239695362433879e-02 -3.052719117759481460e+00 1.373221569388884511e+00 -5.620734896371659683e-01 -1.999109839439525138e-01 1.622386662334644458e-01 3.123216709504572086e-01 -5.089447281743150059e-02 -6.985018796958235299e-02 -2.334843461537807752e+00 2.970601168175682205e-02 2.216967123435293452e+00 -3.243719172373981108e-01 -8.315770370141403744e-02 -8.255370014723460992e-01 6.470335366532393995e-02 2.538866667874721816e-01 8.471065000962268998e-02 1.822660171824055930e-01 -2.344074750320907646e-02 -8.061807084479784002e-01 -1.059371634720547989e-01 -5.018932206496576898e-01 -1.089803211713855080e-01 -1.463363931932814554e-01 -4.235712477702284207e-01 2.367955156464354449e-01 6.967956956393213108e-01 -6.937700214414738165e-01 5.816910067425169473e-01
1.840956141905534027e+00 -5.366920734693279155e-03 1.871624260389495864e-01 2.360108149622213713e-01 -8.681098418044329579e-01 1.117413260100162065e+00 -5.251596473586671587e-01 1.202202585866458895e+00 3.650657953806790007e-02 4.528175462071049595e-01 -8.934763455739471727e-01 2.363159020631022678e+00 -5.249215632061172976e-02 -1.040095045894118053e+00 1.474813568521746499e+00 -3.234344930255225181e-01 1.281072717939447936e-01 -3.028620682068127734e-01 -4.516399809601520099e-01 1.733818273258092846e-01 -4.890793567244087758e-01 -2.387819499472996765e-01 -3.327449717859284339e-01 3.807850058759207901e-01 -7.040667753737817058e-01 -1.045883113326302460e+00 -8.491299582825847514e-01 -7.336797131211723888e-02 1.547256456917152523e+00 1.264267987690355755e+00 9.280098605475790574e-01 -2.895890052573154572e-01 4.783264890916434919e-01 5.195484718238417843e-01 7.550954597761279086e-01 -1.124385063426881493e+00 2.451104632635658920e-01 -9.161457621293704612e-02 2.288671591003352379e+00 3.348630465685480950e-01 -9.158269453376190194e-02 -4.123735792909066777e-01 6.197145371445634821e-01 1.962466477213383464e-01 3.426154368144267992e-01 -6.981851197865994729e-01 1.361527677999820884e-01 -1.797201108340807903e-03 -9.559978610983010938e-02 3.177379568658088016e-01 7.905890246694371459e-01 -2.498897326601727364e+00 2.428837850834979495e+00 -2.670477324833509414e+00 -9.940260194860343068e-01 6.708023569195733504e-01 2.479057666183414610e-01 6.467861965293161264e-01 -7.944348807750969410e-01 9.518635272181694140e-02 3.644281617971761086e-03 -8.233340802854699492e-02 -4.853728544099823218e-03 1.089659229936935092e-01 -4.361053756717469393e-02 -4.160260884389881397e-01 7.914369744913696270e-02 1.120499612332569006e+00 -7.204997241060413504e-01 -2.150846063487938942e-01 1.633923716430991657e+00 5.089802093979131081e-01 -1.542182127721986040e+00 1.888429504859219898e+00 -3.233784429766500823e-01 -1.262715041382147074e+00 4.174180836894255120e-01 -2.582362534240992158e+00 -9.627881445419750328e-01 1.355393540082396431e+00 3.947496955752659020e-01 1.057801719131488127e+00 9.690590651474731976e-01 -5.815454823037013998e-01 3.615315569779246063e-01 -8.429459409638705436e-01 -1.047598553354178064e+00 -7.135479753839642225e-02 -7.062717534431853239e-02 1.724505737615159295e-01 3.243834357795517764e+00 -4.291176829275030080e+00 3.492498599845848428e+00 -4.057046519163510362e-02 -2.307513663395862613e-01 3.280907608469891823e-01 -1.450721817698605864e+00 -9.633383606180621062e-01 -9.711108054685832491e-02 1.579905353275028013e+00 -2.445957284110768515e-01 1.476844225796950294e+00 1.195600507174044980e+00 -2.010854638671143169e-01 -1.100930431966612222e+00 7.070446270528665256e-01 4.061201421868916861e-01 -1.924141613521068717e-01 -3.690530621600994765e-01 7.406114072386070502e-02 2.778349500543242923e-01 -3.025725619910771616e-02 1.959669116976080483e-01 -4.334386274749356671e-01 -2.681893022860738718e+00 -1.032041322357971191e+00 6.054058338425059027e-01 -1.874144455706227896e+00 -1.662017132211244252e+00 -2.675713633527711188e+00 2.207568712946839096e+00 2.392754989097561680e+00 1.384449062664854013e+00 5.149446545068244729e-01 -1.416202186682034236e+00 8.227910632982287087e-01 4.332257401333467622e-02 -7.001484141590300636e-01 9.168559008219652195e-01 -1.024629860391013780e+00 4.130842322041333725e-01 1.248881477943925455e+00 -2.784129340445317125e-01 -6.981815202421763900e-01 -1.463338220901221620e-01 9.578387709603496461e-03 -2.021061918213507891e+00 -6.349586077759692415e-01 8.216973160142685417e-01 1.329928820172197532e-02 3.597179008093643882e-01 -2.509926330713800335e-01 -4.072827950355206728e-01 -1.234545006727747696e+00 2.036935394898307106e+00 -2.522591070655810341e+00 2.296232176953548088e+00 8.660678716753281714e-01 -1.664403630163693582e-01 -2.871999362017070290e-01 -1.245828550052589412e+00 2.660320438913066354e-02 -8.414805664292670073e+00 -3.464705488914600062e-01 -5.001875508137874071e-01 -8.102805895457756424e-01 -3.114768064523159019e-01 4.117153768821295023e-01 4.893107560087444630e-01 -2.978777276222211931e-02 -2.063332396814062442e+00 1.110101042715153197e+00 2.956023013262532029e-01 3.286589746451913929e-01 5.620745180784296746e-01 -6.602094119033155017e-01 3.670979953177784805e-01 2.147724744252565710e-01 -3.244903422489148426e+00 3.264923574349243740e+00 2.819677412725603460e+00 9.266188937384054469e-01 -7.672223249372156495e-02 6.356888010732064664e-01 9.407903001317571290e-01 1.084260941743698581e+00 -1.069373740230801673e+00 2.220949762229026958e-01 -4.545520123983591287e-01 1.980726451850631509e-01 9.758354646340869909e-01 -1.431996473389527125e-01 -6.939901078719086236e-01 -2.458941355065161483e-01 -2.335790655941688554e-01 -1.850215198602754407e+00 1.570162414963230113e-01 2.493655361480575650e+00 -1.600198042070007487e+00 6.153416048912501157e-01 1.092045213668752512e-01 1.385118063706900271e+00