1.226630000000000109e+00 1.610030000000000072e+00 1.239130000000000065e+00 3.798480000000000079e+00 4.497309999999999697e+00 2.158100000000000129e+00 1.664199999999999902e+00 4.717719999999999914e+00 4.621990000000000265e+00 4.615389999999999660e+00 1.963799999999999990e+00 5.213359999999999772e+00 7.050589999999999691e+00 1.678639999999999910e+00 1.481200000000000072e+00 1.041849999999999987e+01 4.619670000000000165e+00 1.732539999999999969e+00 7.572940000000000005e+00 4.248520000000000074e+00 4.403340000000000032e+00 1.082319999999999993e+01 2.356199999999999850e+00 4.481849999999999667e+00 1.617879999999999985e+00 8.281980000000000786e+00 2.476840000000000153e+00 4.264479999999999826e+00 1.069619999999999926e+01 1.614049999999999985e+00 1.471500000000000030e+00 1.100660000000000061e+01 4.816709999999999603e+00 4.837550000000000239e+00 7.962279999999999802e+00 4.654600000000000293e+00 8.408720000000000638e+00 7.996470000000000411e+00 1.938099999999999934e+00 1.042639999999999922e+01 1.029349999999999987e+01 2.374420000000000197e+00 7.918280000000000207e+00 1.068180000000000085e+01 4.517660000000000231e+00 1.091590000000000060e+01 8.491949999999999221e+00 5.152160000000000295e+00 2.245989999999999931e+00 1.685980000000000034e+00 7.552109999999999879e+00 5.163000000000000256e+00 4.119600000000000151e+00 7.856060000000000265e+00 8.436759999999999815e-01 3.828050000000000175e+00 1.089000000000000057e+01 4.504159999999999719e+00 1.088289999999999980e+00 1.059699999999999953e+01 7.681560000000000166e+00 1.579779999999999962e+00 7.549140000000000406e+00 1.125050000000000061e+01 4.986410000000000231e+00 7.285249999999999559e+00 7.000409999999999577e+00 3.866120000000000001e+00 1.067769999999999975e+01 1.036299999999999955e+01 1.263819999999999943e+00 1.014470000000000027e+01 1.978290000000000104e+00 7.533070000000000377e+00 7.874229999999999841e+00 4.547340000000000160e+00 1.050830000000000020e+01 7.394619999999999749e+00 1.512520000000000087e+00 9.925670000000000215e+00 1.080100000000000016e+01 4.825040000000000440e+00 7.375630000000000130e+00 1.003260000000000041e+01 7.740109999999999602e+00 7.551919999999999966e+00 7.496730000000000338e+00 1.090659999999999918e+01 1.066460000000000008e+01 7.509579999999999700e+00 8.264469999999999317e+00 1.053129999999999988e+01 1.068410000000000082e+01 1.056320000000000014e+01 7.220349999999999824e+00 1.051350000000000051e+01 4.175399999999999778e+00 1.307450000000000001e+00 1.627380000000000049e+00 1.003489999999999993e+00 4.609740000000000393e+00 1.706700000000000106e+00 4.476619999999999600e+00 4.504190000000000360e+00 4.629419999999999646e+00 1.201940000000000008e+00 1.851660000000000084e+00 5.177319999999999922e+00 1.024000000000000021e+01 1.491950000000000109e+00 1.610810000000000075e+00 7.199539999999999829e+00 4.453870000000000218e+00 1.573600000000000110e+00 1.102740000000000009e+01 4.900380000000000180e+00 4.403760000000000119e+00 7.197840000000000238e+00 9.859869999999999468e-01 4.599759999999999849e+00 4.683939999999999770e+00 7.772339999999999804e+00 1.874060000000000059e+00 1.451400000000000023e+00 1.082779999999999987e+01 1.805209999999999981e+00 4.546619999999999884e+00 1.065559999999999974e+01 4.823959999999999582e+00 1.266359999999999930e+00 7.824239999999999640e+00 5.004760000000000097e+00 1.086669999999999980e+01 7.689289999999999736e+00 1.943519999999999914e+00 7.434050000000000047e+00 1.079260000000000019e+01 1.507479999999999931e+00 1.102650000000000041e+01 1.113090000000000046e+01 5.167670000000000208e+00 7.676359999999999850e+00 7.290490000000000137e+00 4.378540000000000099e+00 4.745720000000000383e+00 1.173899999999999944e+00 7.632240000000000357e+00 1.643540000000000001e+00 4.424070000000000391e+00 7.402330000000000076e+00 4.455790000000000362e+00 4.580779999999999852e+00 1.050799999999999912e+01 7.307690000000000019e-01 1.252070000000000016e+00 1.008880000000000088e+01 1.070839999999999925e+01 1.203160000000000007e+00 7.432000000000000384e+00 7.776880000000000237e+00 4.562979999999999592e+00 7.365929999999999644e+00 1.044040000000000035e+01 4.445560000000000400e+00 1.005419999999999980e+01 7.355400000000000382e+00 9.694920000000000204e-01 1.046700000000000053e+01 4.759140000000000370e+00 7.523769999999999847e+00 7.395310000000000272e+00 1.397629999999999928e+00 1.081680000000000064e+01 7.809210000000000207e+00 4.652689999999999770e+00 1.055669999999999931e+01 1.015889999999999915e+01 1.667950000000000044e+00 7.341339999999999755e+00 1.047119999999999962e+01 1.086379999999999946e+01 7.494869999999999699e+00 7.792019999999999946e+00 7.465620000000000367e+00 1.078780000000000072e+01 7.583160000000000345e+00 1.072749999999999915e+01 1.033740000000000059e+01 1.052519999999999989e+01 7.872499999999999609e+00 7.759759999999999991e+00 1.069510000000000005e+01
1.262289999999999912e+00 1.707719999999999905e+00 1.415270000000000028e+00 4.168249999999999567e+00 4.829469999999999708e+00 2.325829999999999842e+00 1.759449999999999958e+00 4.924019999999999619e+00 4.393580000000000041e+00 4.344540000000000290e+00 1.749730000000000008e+00 4.509839999999999627e+00 7.055649999999999977e+00 1.382530000000000037e+00 1.544559999999999933e+00 1.041370000000000040e+01 5.082019999999999982e+00 1.481859999999999955e+00 8.047510000000000829e+00 4.547450000000000436e+00 4.044249999999999901e+00 1.051130000000000031e+01 2.067540000000000155e+00 4.436469999999999914e+00 2.002180000000000071e+00 7.676599999999999646e+00 1.947119999999999962e+00 4.537049999999999805e+00 1.068110000000000070e+01 1.690199999999999925e+00 1.617119999999999891e+00 1.104340000000000011e+01 4.611439999999999984e+00 4.407610000000000028e+00 7.829799999999999649e+00 4.778310000000000279e+00 7.869279999999999831e+00 7.503540000000000099e+00 1.896269999999999900e+00 1.063180000000000014e+01 1.058520000000000039e+01 1.704420000000000046e+00 7.736469999999999736e+00 1.025689999999999991e+01 4.333580000000000432e+00 1.068229999999999968e+01 8.017870000000000275e+00 5.131529999999999703e+00 1.532259999999999955e+00 1.756930000000000103e+00 7.783619999999999983e+00 4.636540000000000106e+00 4.474599999999999689e+00 7.716359999999999886e+00 1.607969999999999899e+00 4.228460000000000107e+00 1.089569999999999972e+01 4.390439999999999898e+00 1.597790000000000044e+00 1.050839999999999996e+01 7.863339999999999996e+00 1.558950000000000058e+00 7.555130000000000123e+00 1.106760000000000055e+01 4.893250000000000099e+00 7.291739999999999888e+00 7.271379999999999733e+00 4.301280000000000214e+00 1.117689999999999984e+01 1.033619999999999983e+01 1.673740000000000006e+00 1.050900000000000034e+01 1.860940000000000039e+00 7.991810000000000080e+00 7.755049999999999777e+00 4.689549999999999663e+00 1.022409999999999997e+01 7.578050000000000175e+00 1.620049999999999990e+00 1.008200000000000074e+01 1.100319999999999965e+01 4.788420000000000343e+00 7.570949999999999847e+00 1.025810000000000066e+01 8.019830000000000680e+00 7.556079999999999686e+00 7.514840000000000408e+00 1.069790000000000063e+01 1.074959999999999916e+01 7.966079999999999828e+00 7.313089999999999868e+00 1.028090000000000082e+01 1.077919999999999945e+01 1.090479999999999983e+01 7.095049999999999635e+00 1.085800000000000054e+01 4.439009999999999678e+00 1.644300000000000095e+00 1.686730000000000063e+00 1.322969999999999979e+00 4.939720000000000333e+00 1.578880000000000061e+00 4.640609999999999680e+00 4.798779999999999824e+00 4.832559999999999967e+00 1.648709999999999898e+00 1.743349999999999955e+00 4.899890000000000079e+00 1.015320000000000000e+01 1.368389999999999995e+00 1.211060000000000025e+00 6.792670000000000208e+00 4.876920000000000144e+00 1.847460000000000102e+00 1.053570000000000029e+01 4.889370000000000438e+00 4.513419999999999987e+00 7.113679999999999559e+00 1.594359999999999999e+00 4.790070000000000050e+00 4.691740000000000244e+00 7.378969999999999807e+00 1.626030000000000086e+00 1.352230000000000043e+00 1.074169999999999980e+01 1.709950000000000081e+00 4.749810000000000088e+00 1.051740000000000030e+01 4.998499999999999943e+00 1.812899999999999956e+00 7.594479999999999897e+00 5.110710000000000086e+00 1.090690000000000026e+01 7.823669999999999902e+00 1.635040000000000049e+00 7.278550000000000075e+00 1.063569999999999993e+01 1.599939999999999918e+00 1.041719999999999935e+01 1.096729999999999983e+01 4.889619999999999855e+00 7.725999999999999979e+00 7.391799999999999926e+00 4.377449999999999619e+00 4.624690000000000190e+00 1.491209999999999924e+00 7.699300000000000033e+00 2.119050000000000100e+00 4.613089999999999691e+00 7.428309999999999746e+00 4.485590000000000188e+00 4.286299999999999777e+00 1.061120000000000019e+01 1.629809999999999981e+00 1.294280000000000097e+00 1.063049999999999962e+01 1.059689999999999976e+01 1.609860000000000069e+00 7.724990000000000023e+00 7.622259999999999813e+00 4.654589999999999783e+00 7.427690000000000126e+00 9.981769999999999143e+00 4.368299999999999628e+00 9.867490000000000094e+00 7.368509999999999671e+00 1.515320000000000000e+00 1.045790000000000042e+01 4.858310000000000350e+00 7.315039999999999765e+00 7.335860000000000269e+00 1.887499999999999956e+00 1.050769999999999982e+01 7.976320000000000299e+00 4.698760000000000048e+00 1.064109999999999978e+01 1.041820000000000057e+01 1.565430000000000099e+00 7.091380000000000017e+00 1.072339999999999982e+01 1.052849999999999930e+01 7.637789999999999857e+00 7.810430000000000206e+00 7.624600000000000044e+00 1.046039999999999992e+01 7.645439999999999792e+00 1.083789999999999942e+01 1.009409999999999918e+01 1.083370000000000033e+01 7.742670000000000385e+00 7.125969999999999693e+00 1.093009999999999948e+01
1.209699999999999998e+00 1.865790000000000060e+00 8.139499999999999513e-01 4.211529999999999774e+00 4.914270000000000138e+00 2.064579999999999860e+00 1.570680000000000076e+00 4.445879999999999832e+00 4.810979999999999812e+00 4.288850000000000051e+00 1.645729999999999915e+00 4.827480000000000437e+00 7.209349999999999703e+00 1.275139999999999940e+00 1.736469999999999958e+00 1.008670000000000044e+01 5.060150000000000148e+00 1.520650000000000057e+00 7.428119999999999834e+00 4.172139999999999738e+00 4.176179999999999559e+00 1.046930000000000049e+01 1.876929999999999987e+00 3.923709999999999809e+00 1.822750000000000092e+00 7.897109999999999630e+00 2.203430000000000000e+00 4.266820000000000057e+00 1.035970000000000013e+01 1.733409999999999895e+00 1.410069999999999935e+00 1.098450000000000060e+01 4.641119999999999912e+00 4.768329999999999735e+00 7.900570000000000093e+00 4.575800000000000090e+00 7.898649999999999949e+00 8.239580000000000126e+00 1.969829999999999970e+00 1.093149999999999977e+01 1.101709999999999923e+01 1.961759999999999948e+00 7.551389999999999603e+00 1.075220000000000020e+01 4.536669999999999980e+00 1.093340000000000067e+01 8.148759999999999337e+00 5.382769999999999833e+00 1.578600000000000003e+00 1.904239999999999933e+00 7.883919999999999817e+00 5.006540000000000212e+00 4.446380000000000443e+00 7.557150000000000034e+00 5.614120000000000221e-01 3.814950000000000063e+00 1.065809999999999924e+01 4.230800000000000338e+00 1.157540000000000013e+00 1.054690000000000083e+01 7.187409999999999854e+00 1.620919999999999916e+00 7.535040000000000404e+00 1.122600000000000087e+01 4.962930000000000064e+00 7.441900000000000404e+00 7.102780000000000094e+00 3.929030000000000022e+00 1.044330000000000069e+01 9.926780000000000825e+00 1.576610000000000067e+00 1.047509999999999941e+01 1.797099999999999920e+00 7.738800000000000345e+00 7.864300000000000068e+00 4.573780000000000179e+00 1.037439999999999962e+01 7.568730000000000402e+00 1.459079999999999933e+00 9.960050000000000736e+00 1.110790000000000077e+01 4.658129999999999882e+00 6.978460000000000107e+00 1.033210000000000051e+01 7.784440000000000026e+00 7.573070000000000412e+00 6.919439999999999813e+00 1.107380000000000031e+01 1.050179999999999936e+01 8.198430000000000106e+00 7.353989999999999583e+00 1.000650000000000084e+01 1.075019999999999953e+01 1.122170000000000023e+01 7.465830000000000410e+00 1.099089999999999989e+01 3.985619999999999941e+00 1.513989999999999947e+00 1.104479999999999906e+00 1.155429999999999957e+00 4.780859999999999665e+00 1.479389999999999983e+00 4.659639999999999560e+00 4.693880000000000052e+00 4.727020000000000444e+00 1.688280000000000003e+00 1.958700000000000108e+00 4.841199999999999726e+00 9.832269999999999399e+00 1.129410000000000025e+00 1.182760000000000034e+00 6.814689999999999692e+00 4.724300000000000388e+00 1.649629999999999930e+00 1.105829999999999913e+01 4.756099999999999994e+00 4.002989999999999604e+00 7.117449999999999832e+00 1.357329999999999925e+00 4.691639999999999588e+00 4.507010000000000183e+00 7.451679999999999637e+00 1.761470000000000091e+00 1.260310000000000041e+00 1.102660000000000018e+01 1.681389999999999940e+00 4.517649999999999721e+00 1.057140000000000057e+01 4.706550000000000011e+00 1.872579999999999911e+00 7.919940000000000424e+00 4.829360000000000319e+00 1.125569999999999915e+01 7.859740000000000393e+00 1.497759999999999980e+00 7.490470000000000184e+00 1.085580000000000034e+01 1.558869999999999978e+00 1.057220000000000049e+01 1.150159999999999982e+01 4.715629999999999988e+00 7.604330000000000034e+00 7.388869999999999827e+00 4.240739999999999732e+00 4.432439999999999714e+00 1.170709999999999917e+00 7.657130000000000436e+00 1.563919999999999977e+00 5.069790000000000241e+00 7.750609999999999999e+00 4.512870000000000381e+00 4.065400000000000347e+00 1.053090000000000082e+01 1.239009999999999945e+00 8.698449999999999793e-01 1.067750000000000021e+01 1.113870000000000005e+01 1.006490000000000107e+00 7.753890000000000171e+00 7.579220000000000290e+00 4.515620000000000189e+00 7.392389999999999795e+00 1.036940000000000062e+01 4.154099999999999682e+00 1.015820000000000078e+01 6.988260000000000360e+00 1.308640000000000025e+00 1.075650000000000084e+01 4.664329999999999643e+00 7.288969999999999949e+00 7.350369999999999848e+00 1.987929999999999975e+00 1.043609999999999971e+01 8.235450000000000159e+00 4.563469999999999693e+00 1.060549999999999926e+01 1.041099999999999959e+01 1.454429999999999890e+00 7.285709999999999908e+00 1.070930000000000071e+01 1.086289999999999978e+01 7.760720000000000063e+00 8.141999999999999460e+00 7.527470000000000105e+00 1.060919999999999952e+01 7.485789999999999722e+00 1.125939999999999941e+01 9.990709999999999980e+00 1.081220000000000070e+01 8.070370000000000488e+00 7.386020000000000252e+00 1.108319999999999972e+01
1.040070000000000050e+00 1.772480000000000055e+00 1.446059999999999901e+00 3.896040000000000170e+00 4.551400000000000112e+00 2.184239999999999959e+00 1.734040000000000026e+00 4.829299999999999926e+00 4.409370000000000012e+00 4.405070000000000263e+00 1.607939999999999925e+00 4.191620000000000346e+00 6.985450000000000159e+00 1.329420000000000046e+00 1.552880000000000038e+00 1.045040000000000013e+01 5.163000000000000256e+00 1.432250000000000023e+00 7.933889999999999887e+00 4.271930000000000227e+00 3.972840000000000149e+00 1.060689999999999955e+01 1.832459999999999978e+00 4.346879999999999633e+00 2.045139999999999958e+00 7.459920000000000329e+00 1.734110000000000040e+00 4.563380000000000436e+00 1.072320000000000029e+01 1.630309999999999926e+00 1.629099999999999993e+00 1.081359999999999921e+01 4.629480000000000040e+00 4.428580000000000183e+00 8.007970000000000255e+00 4.575210000000000221e+00 7.667500000000000426e+00 7.485059999999999825e+00 1.674760000000000026e+00 1.052020000000000088e+01 1.060650000000000048e+01 1.514259999999999939e+00 7.475369999999999848e+00 1.030230000000000068e+01 4.316930000000000156e+00 1.074109999999999943e+01 7.899930000000000341e+00 5.089900000000000091e+00 1.264000000000000012e+00 1.794380000000000086e+00 7.907060000000000421e+00 4.674879999999999924e+00 4.314009999999999678e+00 7.633779999999999788e+00 1.446499999999999897e+00 4.298470000000000013e+00 1.055010000000000048e+01 4.401580000000000048e+00 1.438890000000000002e+00 1.037930000000000064e+01 7.764700000000000379e+00 1.329919999999999991e+00 7.386700000000000266e+00 1.107779999999999987e+01 4.858850000000000335e+00 7.196760000000000268e+00 7.408710000000000129e+00 4.496059999999999945e+00 1.116859999999999964e+01 1.027369999999999983e+01 1.599839999999999929e+00 1.028860000000000063e+01 1.691719999999999891e+00 7.693380000000000329e+00 7.839389999999999858e+00 4.799800000000000288e+00 1.020819999999999972e+01 7.456859999999999822e+00 1.586559999999999970e+00 1.005199999999999960e+01 1.102919999999999945e+01 4.862870000000000026e+00 7.660730000000000040e+00 1.043210000000000015e+01 7.916870000000000296e+00 7.417559999999999931e+00 7.562719999999999665e+00 1.058530000000000015e+01 1.073290000000000077e+01 7.754679999999999573e+00 7.226519999999999833e+00 1.009849999999999959e+01 1.073440000000000083e+01 1.071690000000000076e+01 6.945050000000000168e+00 1.088560000000000016e+01 4.225810000000000066e+00 1.698849999999999971e+00 1.710299999999999931e+00 1.292699999999999960e+00 5.045910000000000117e+00 1.668749999999999956e+00 4.693590000000000373e+00 4.604409999999999670e+00 4.920029999999999681e+00 1.556710000000000038e+00 1.770280000000000076e+00 4.927430000000000199e+00 1.031879999999999953e+01 1.442509999999999959e+00 1.296650000000000080e+00 6.927769999999999762e+00 4.890130000000000088e+00 1.886239999999999917e+00 1.060500000000000043e+01 4.975819999999999688e+00 4.494690000000000296e+00 7.248359999999999914e+00 1.720120000000000093e+00 4.738419999999999632e+00 4.722050000000000303e+00 7.542290000000000383e+00 1.544270000000000032e+00 1.387699999999999934e+00 1.073049999999999926e+01 1.724280000000000035e+00 4.770380000000000287e+00 1.063410000000000011e+01 4.978679999999999772e+00 1.744979999999999976e+00 7.712930000000000064e+00 4.969140000000000335e+00 1.083399999999999963e+01 7.778839999999999755e+00 1.695570000000000022e+00 7.301020000000000287e+00 1.058140000000000036e+01 1.668860000000000010e+00 1.043820000000000014e+01 1.099099999999999966e+01 4.908100000000000129e+00 7.849429999999999907e+00 7.596280000000000143e+00 4.466910000000000380e+00 4.597929999999999851e+00 1.516909999999999981e+00 7.808480000000000310e+00 2.002299999999999969e+00 4.700319999999999609e+00 7.459950000000000081e+00 4.357149999999999856e+00 4.302019999999999733e+00 1.067820000000000036e+01 1.692949999999999955e+00 1.203300000000000036e+00 1.067530000000000001e+01 1.061860000000000070e+01 1.781949999999999923e+00 7.848519999999999719e+00 7.690319999999999823e+00 4.620120000000000005e+00 7.389240000000000030e+00 1.010629999999999917e+01 4.404720000000000191e+00 1.014630000000000010e+01 7.554610000000000269e+00 1.544689999999999896e+00 1.050750000000000028e+01 5.016409999999999592e+00 7.407680000000000042e+00 7.445520000000000138e+00 1.956390000000000073e+00 1.060079999999999956e+01 8.033329999999999416e+00 4.576900000000000190e+00 1.057559999999999967e+01 1.063579999999999970e+01 1.711659999999999959e+00 7.188760000000000261e+00 1.079219999999999935e+01 1.054700000000000060e+01 7.766399999999999970e+00 7.745569999999999844e+00 7.870639999999999858e+00 1.044340000000000046e+01 7.674970000000000070e+00 1.087909999999999933e+01 1.016210000000000058e+01 1.090279999999999916e+01 7.698929999999999829e+00 7.002159999999999940e+00 1.090150000000000041e+01
9.559539999999999704e-01 1.477980000000000071e+00 2.135780000000000012e+00 3.800940000000000207e+00 4.408199999999999896e+00 1.297730000000000050e+00 1.619909999999999961e+00 5.027499999999999858e+00 4.871089999999999698e+00 4.658380000000000187e+00 1.776599999999999957e+00 4.575770000000000337e+00 6.998669999999999725e+00 2.051670000000000105e+00 1.418099999999999916e+00 1.026660000000000039e+01 5.120849999999999902e+00 1.298580000000000068e+00 7.782420000000000115e+00 4.545270000000000366e+00 4.898749999999999716e+00 1.049559999999999960e+01 1.595129999999999937e+00 4.333179999999999588e+00 1.614519999999999955e+00 7.977839999999999598e+00 1.861990000000000034e+00 4.183449999999999669e+00 1.058960000000000079e+01 2.011039999999999939e+00 1.926730000000000054e+00 1.091290000000000049e+01 4.900350000000000428e+00 4.975929999999999964e+00 7.374069999999999681e+00 4.392140000000000377e+00 7.725189999999999557e+00 7.827250000000000263e+00 1.739030000000000076e+00 1.022869999999999990e+01 1.139719999999999978e+01 1.480329999999999924e+00 7.807629999999999626e+00 1.112550000000000061e+01 5.198529999999999873e+00 1.061930000000000085e+01 7.823439999999999728e+00 4.932830000000000048e+00 1.530610000000000026e+00 1.582349999999999923e+00 7.252019999999999911e+00 4.719219999999999970e+00 4.455210000000000115e+00 7.216990000000000016e+00 1.542149999999999910e+00 4.387299999999999756e+00 1.082850000000000001e+01 4.067370000000000374e+00 3.456139999999999768e-01 1.024489999999999945e+01 7.735149999999999970e+00 1.299039999999999973e+00 7.865059999999999718e+00 1.057019999999999982e+01 4.333090000000000330e+00 7.514129999999999754e+00 7.360859999999999737e+00 4.268679999999999808e+00 1.040540000000000020e+01 9.605359999999999232e+00 1.362700000000000022e+00 1.033019999999999960e+01 1.768080000000000096e+00 7.173140000000000072e+00 7.365059999999999718e+00 5.003829999999999778e+00 1.042670000000000030e+01 7.322639999999999816e+00 2.060789999999999900e+00 9.945309999999999206e+00 1.078759999999999941e+01 4.699620000000000353e+00 6.991489999999999760e+00 1.096969999999999956e+01 7.816320000000000157e+00 7.001310000000000144e+00 7.667150000000000354e+00 1.103790000000000049e+01 1.035629999999999917e+01 7.516799999999999926e+00 7.782549999999999635e+00 9.754400000000000404e+00 1.087129999999999974e+01 1.055780000000000030e+01 7.226530000000000342e+00 1.047749999999999915e+01 4.009140000000000370e+00 1.612449999999999939e+00 1.281079999999999997e+00 1.062540000000000040e+00 4.550539999999999807e+00 2.000859999999999861e+00 4.515649999999999942e+00 4.782379999999999853e+00 4.274259999999999948e+00 1.674169999999999936e+00 2.137280000000000069e+00 4.641020000000000145e+00 1.008469999999999978e+01 2.054219999999999935e+00 1.124749999999999917e+00 7.132869999999999600e+00 4.586619999999999919e+00 1.484450000000000047e+00 1.102630000000000088e+01 5.014459999999999695e+00 4.637640000000000207e+00 7.780840000000000423e+00 1.587679999999999980e+00 4.396250000000000213e+00 4.635189999999999699e+00 7.828890000000000349e+00 1.570910000000000029e+00 1.564559999999999951e+00 1.105310000000000059e+01 2.008970000000000145e+00 4.689759999999999707e+00 1.119740000000000002e+01 4.712430000000000341e+00 1.229500000000000037e+00 8.259679999999999467e+00 4.701929999999999943e+00 1.069819999999999993e+01 8.059250000000000469e+00 1.958010000000000028e+00 7.631829999999999892e+00 1.073460000000000036e+01 1.925720000000000098e+00 1.068999999999999950e+01 1.087950000000000017e+01 4.894219999999999793e+00 7.636949999999999683e+00 7.803580000000000183e+00 4.496260000000000367e+00 4.654679999999999929e+00 9.130930000000000435e-01 7.790460000000000385e+00 2.016270000000000007e+00 4.509689999999999976e+00 7.609449999999999825e+00 4.332690000000000374e+00 4.333029999999999937e+00 1.040530000000000044e+01 1.195869999999999989e+00 8.867890000000000494e-01 1.087870000000000026e+01 1.089579999999999949e+01 1.641599999999999948e+00 7.516680000000000028e+00 7.854029999999999845e+00 4.225340000000000096e+00 7.618059999999999832e+00 1.075830000000000020e+01 4.441440000000000055e+00 1.074150000000000027e+01 6.856320000000000192e+00 1.634640000000000093e+00 1.044510000000000005e+01 4.978919999999999568e+00 7.294419999999999682e+00 8.213680000000000092e+00 1.344440000000000079e+00 1.065709999999999980e+01 7.875829999999999664e+00 5.085609999999999964e+00 1.025789999999999935e+01 1.101040000000000063e+01 1.738150000000000084e+00 7.404309999999999725e+00 1.072860000000000014e+01 1.087040000000000006e+01 7.500029999999999752e+00 7.609880000000000422e+00 7.557199999999999918e+00 1.049569999999999936e+01 7.895450000000000301e+00 1.055879999999999974e+01 1.008880000000000088e+01 1.078079999999999927e+01 8.027329999999999188e+00 7.046459999999999724e+00 1.067270000000000074e+01
1.347239999999999993e+00 1.868479999999999919e+00 1.742199999999999971e+00 4.134430000000000049e+00 4.417419999999999902e+00 1.382689999999999975e+00 1.801220000000000043e+00 4.424529999999999852e+00 4.745529999999999582e+00 4.535319999999999574e+00 1.759509999999999907e+00 4.448959999999999582e+00 7.250359999999999694e+00 1.721670000000000034e+00 1.457559999999999967e+00 9.923030000000000683e+00 4.660079999999999778e+00 1.655699999999999950e+00 7.598629999999999995e+00 4.783240000000000158e+00 4.983600000000000030e+00 1.054410000000000025e+01 1.570240000000000080e+00 4.402730000000000032e+00 1.608689999999999953e+00 7.921829999999999927e+00 1.585420000000000051e+00 4.283750000000000391e+00 1.060670000000000002e+01 1.947510000000000074e+00 1.469279999999999919e+00 1.051299999999999990e+01 4.914570000000000327e+00 4.933609999999999829e+00 7.799030000000000129e+00 4.161150000000000126e+00 7.489370000000000083e+00 7.572700000000000209e+00 1.424080000000000013e+00 1.015770000000000017e+01 1.054669999999999952e+01 1.597129999999999939e+00 7.461750000000000327e+00 1.068759999999999977e+01 4.795250000000000234e+00 1.063719999999999999e+01 7.703879999999999839e+00 4.453339999999999854e+00 1.637890000000000068e+00 1.547379999999999978e+00 7.794069999999999609e+00 5.242659999999999876e+00 4.205309999999999881e+00 7.827799999999999869e+00 1.385950000000000015e+00 4.231460000000000221e+00 1.024929999999999986e+01 4.685940000000000438e+00 1.472879999999999967e+00 1.068270000000000053e+01 7.161240000000000272e+00 1.112349999999999950e+00 7.356349999999999945e+00 1.037299999999999933e+01 4.860470000000000290e+00 7.222640000000000171e+00 7.373929999999999652e+00 3.984239999999999782e+00 1.062459999999999916e+01 1.069299999999999962e+01 1.143510000000000026e+00 1.069350000000000023e+01 1.611359999999999904e+00 7.554870000000000196e+00 7.932129999999999903e+00 5.034790000000000099e+00 1.038860000000000028e+01 7.884529999999999816e+00 1.531109999999999971e+00 1.025660000000000061e+01 1.051510000000000034e+01 4.715449999999999697e+00 7.314639999999999809e+00 1.063870000000000005e+01 7.626179999999999737e+00 7.006709999999999994e+00 7.469920000000000115e+00 1.117159999999999975e+01 1.079460000000000086e+01 7.439750000000000085e+00 7.597870000000000346e+00 1.008840000000000003e+01 1.036819999999999986e+01 1.028129999999999988e+01 7.572219999999999729e+00 1.068880000000000052e+01 3.858460000000000001e+00 1.525670000000000082e+00 1.352829999999999977e+00 1.231770000000000032e+00 4.570529999999999760e+00 1.846859999999999946e+00 4.849149999999999849e+00 4.204509999999999970e+00 4.836479999999999890e+00 1.487889999999999935e+00 1.846330000000000027e+00 4.876009999999999955e+00 1.010340000000000060e+01 2.012750000000000039e+00 1.770070000000000032e+00 7.329970000000000319e+00 4.628440000000000332e+00 1.572640000000000038e+00 1.090060000000000073e+01 4.977909999999999613e+00 4.501590000000000202e+00 7.820249999999999702e+00 1.292159999999999975e+00 4.341520000000000046e+00 4.699580000000000091e+00 7.999469999999999636e+00 1.585399999999999920e+00 1.674460000000000059e+00 1.067970000000000041e+01 2.122829999999999995e+00 4.428180000000000227e+00 1.084999999999999964e+01 4.549970000000000070e+00 1.730210000000000026e+00 7.823080000000000034e+00 4.370540000000000092e+00 1.038530000000000086e+01 7.768309999999999604e+00 1.895070000000000032e+00 7.589439999999999742e+00 1.043430000000000035e+01 1.731000000000000094e+00 1.064569999999999972e+01 1.057189999999999941e+01 4.598029999999999617e+00 7.886510000000000353e+00 7.960609999999999964e+00 5.017979999999999663e+00 4.523509999999999920e+00 1.443249999999999922e+00 7.520459999999999923e+00 1.497849999999999904e+00 4.765799999999999592e+00 7.423829999999999707e+00 4.176239999999999952e+00 4.553440000000000154e+00 1.084619999999999962e+01 1.544170000000000043e+00 1.338300000000000045e+00 1.085779999999999923e+01 1.027779999999999916e+01 2.198080000000000034e+00 7.405800000000000161e+00 7.914979999999999905e+00 4.227730000000000210e+00 7.533389999999999809e+00 1.068670000000000009e+01 4.383270000000000444e+00 1.106170000000000009e+01 7.596070000000000100e+00 1.411370000000000013e+00 1.070860000000000056e+01 4.791839999999999655e+00 7.660219999999999807e+00 7.926879999999999704e+00 1.986229999999999940e+00 1.072419999999999973e+01 7.892140000000000377e+00 4.435039999999999871e+00 1.032699999999999996e+01 1.096129999999999960e+01 2.134780000000000122e+00 7.455099999999999838e+00 1.064259999999999984e+01 1.087809999999999988e+01 7.940870000000000317e+00 7.828459999999999752e+00 8.025639999999999219e+00 1.030739999999999945e+01 7.810270000000000046e+00 1.036890000000000001e+01 1.045190000000000019e+01 1.050300000000000011e+01 7.631800000000000139e+00 7.458779999999999966e+00 1.025070000000000014e+01