-1.051668203450889450e+04
-1.051777314474885679e+04
-1.051670172623827784e+04
-1.051831418788088558e+04
-1.051901708792160025e+04
-1.051711297284910870e+04
-1.051672643782837986e+04
-1.051711275124256645e+04
-1.051777637793663416e+04
-1.051873128951521721e+04
-1.051758751262531223e+04
-1.051688227722361989e+04
-1.051933690291547100e+04
-1.051335265391568282e+04
-1.051717125193461106e+04
-1.051667226895973363e+04
-1.051828307379995385e+04
-1.051806167505877784e+04
-1.051844878897945637e+04
-1.051796336766971399e+04
-1.051757556214030046e+04
-1.051662209775719384e+04
-1.051775365703802527e+04
-1.051681124185613589e+04
-1.051798770037761642e+04
-1.051797058489654592e+04
-1.051716046575326072e+04
-1.051762290425406718e+04
-1.051847462708639978e+04
-1.051694278407545607e+04
-1.051722307904636000e+04
-1.051832191970326858e+04
-1.051637187416811139e+04
-1.051647433339326926e+04
-1.051920576721877660e+04
-1.051666753966997931e+04
-1.051734549760148548e+04
-1.051821603193647388e+04
-1.051750140817484134e+04
-1.051881681940363342e+04
-1.051675196727327784e+04
-1.051693023022961461e+04
-1.051866798139143430e+04
-1.051700242272630385e+04
-1.051701090949689933e+04
-1.051716975989137427e+04
-1.051820810845935375e+04
-1.051715435974086358e+04
-1.051670468209528008e+04
-1.051716501916627567e+04
-1.051682612533806969e+04
-1.051679958732474915e+04
-1.051675238125902069e+04
-1.051649795068795720e+04
-1.051807943636665550e+04
-1.051631721412060142e+04
-1.051740123695202783e+04
-1.051859617510370299e+04
-1.051942405785437586e+04
-1.051759425577168440e+04
-1.051705649059460302e+04
-1.051278629734038441e+04
-1.051712295122862997e+04
-1.051667160619308561e+04
-1.051617454886991072e+04
-1.051707073625118028e+04
-1.051643847181210913e+04
-1.051749545483714428e+04
-1.051678128686466516e+04
-1.051678448111133366e+04
-1.051817384925560691e+04
-1.051893967302124292e+04
-1.051705470869133569e+04
-1.051699359031052882e+04
-1.051929501304301812e+04
-1.051643951302872483e+04
-1.051796071633066458e+04
-1.051722490345593542e+04
-1.051659008779529722e+04
-1.051685795875752046e+04
-1.051673223575179509e+04
-1.051696604750351980e+04
-1.051845128014042530e+04
-1.051656340264117352e+04
-1.051928523442082769e+04
-1.051785834589317165e+04
-1.051725358835357292e+04
-1.051711159804806630e+04
-1.051605198808003479e+04
-1.051838636963682620e+04
-1.051670540723985869e+04
-1.051711455806329468e+04
-1.051723088590997213e+04
-1.051877625624712527e+04
-1.051763577730751786e+04
-1.051715240051817818e+04
-1.051841716869585434e+04
-1.051676127392634407e+04
-1.051785652691694850e+04
-1.051821486967823148e+04
-1.051900584788185915e+04
-1.051830512884474410e+04
-1.051678072166692800e+04
-1.051806655602311730e+04
-1.051671949381794002e+04
-1.051706822940048733e+04
-1.051694291303728096e+04
-1.051691458604022591e+04
-1.051670797248729104e+04
-1.051843279676089878e+04
-1.051670801296315949e+04
-1.051664226514498478e+04
-1.051640562676311856e+04
-1.051698788334736491e+04
-1.051755062374336921e+04
-1.052046474607912387e+04
-1.051698611510696719e+04
-1.051598268257035488e+04
-1.051715694297159280e+04
-1.051713704001127553e+04
-1.051641339429052641e+04
-1.051640827330471438e+04
-1.051649991504373429e+04
-1.051775587279311003e+04
-1.051785457449466230e+04
-1.051810932715150011e+04
-1.051653194082381560e+04
-1.051722536976897936e+04
-1.051681804566244682e+04
-1.051742891773959309e+04
-1.051677964760554460e+04
-1.051764288567110816e+04
-1.051789474677321596e+04
-1.051808711683204638e+04
-1.051697765978292227e+04
-1.051838526534682387e+04
