-5.914406299225288821e-01 5.350671362726591718e-02 3.462561188879755836e-01 6.918365518656908186e-01 2.082799247274279633e-02 -2.033559536450164629e+00 -3.027263139600024355e-01 5.569677929834561392e-02 3.501004323317397637e-01 -4.506830163642658316e-01 -1.461237629620085077e+00 -2.192823950548966838e+00 6.142463149453942783e-01 -3.513602728797897701e-01 5.578147143641248862e-01 -5.481874756944948857e-01 -7.713921400409452511e-01 -8.248350903098610187e-01 1.158533941367884401e-01 2.269065386751902003e-01 4.012792691585882476e-01 -7.388296327492219762e-01 -1.675885662652432329e+00 -1.768795560637017594e-01 6.040940570106382301e-01 -1.318995461097650645e+00 -1.438851034412183427e+00 6.315930337404640493e-01 -6.083548891662067248e-01 -6.197747009584907846e-02 8.831785632003754660e-01 6.719115308224893335e-02 1.717301506562840807e-01 9.115177764426558860e-02 -4.572583555838234948e-01 -1.215059644324784083e+00 -2.689010864846905768e+00 2.927092960514247610e-01 -1.119580700063440126e+00 2.096426094018494571e-02 1.262051696767051201e+00 -7.833919927059642685e-01 -1.236407513856334212e-01 -6.739864110720328316e-01 4.391511044742369418e-01 -5.808502560094305212e-01 -1.405303280389821552e+00 -9.229339886905169044e-01 -1.853572545108149949e+00 -1.610991533132689613e-01 1.249268686079713753e+00 -8.961389800057035782e-01 5.375698480879079755e-01 -4.112525783134580726e-01 2.947317257965189619e-01 1.014622098453809684e+00 -1.566537159508637034e+00 -5.632104314542021178e-02 1.015518899235768463e-01 -5.583047666262846986e-02 7.313441230112770475e-01 -5.666639372177548761e-01 -3.761076550085479808e-01 -6.473266424133979902e-01 -1.622816036562245046e+00 3.019308146425194184e-01 1.130899724611880153e+00 2.015446628913627469e-01 -5.555732266298594180e-01 -3.596927039984033625e-01 -3.218764045109952926e-02 6.608691569739882921e-01 -3.183077133259065161e-01 1.215550725028207574e-01 -5.037978938700566900e-01 3.323505645612939707e-01 -3.190975562164391488e-01 9.385128169532618303e-01 3.608106196520609044e-01 1.113437820395274169e+00 -6.285200512444857335e-01 -3.245760628282454152e-02 3.317561255108670837e-01 1.575252684997984431e+00 3.311627149017039029e-01 2.256482407890357256e-01 2.500258982834885901e-01 -5.167490547040113347e-01 -4.823122132091685610e-01 4.000631887863092651e+00 -1.833109135063393902e+00 -7.139439252704942174e-01 -6.159077618069248583e-01 4.664315374355234578e-01 2.660150746104553710e-01 5.098399862943783223e-01 -1.619311622956138563e-01 9.584836036326985775e-01 5.390178933872178391e-01 3.445879871582309129e-01 -1.597390397420067054e-01 5.048669585636876567e-02 9.335624149303729524e-01 1.412713199694883404e+00 1.402596937204357186e+00 5.043779347427915782e-01 -7.548141810905020233e-01 -2.225884737632960242e+00 4.532237805062721558e-01 6.214664868373008799e-01 4.453587759420166714e-01 1.315119265974711293e-01 4.662459037874230883e-01 2.674672336748200596e-01 -9.317415596729665683e-01 1.165114937014392504e+00 4.536536689545047629e-01 5.119642317245802765e-01 1.895664589149450130e+00 -1.457003022716741314e-01 -9.410926618632891039e-01 -2.809074183296708660e-01 -2.542728464819969392e-01 -5.138401085895953901e-01 5.886756655850329256e-01 1.513130204683951208e-01 -1.690418051929347687e-01 4.108309173953352267e-01 -2.269208854308190304e+00 7.280063168898922576e-01 1.445134810533477976e-01 4.310588143907006509e-01 2.234034620427264528e+00 -5.951661584003341554e-01 -1.790094579208541536e-01 2.243025253954654963e-01 -4.882164945041526094e-01 1.181667184933242964e+00 -7.418655913597067553e-01 9.564827711541423749e-01 -4.617746525492986365e+00 -3.373909551947579244e-01 -2.211560093491314952e-02 1.576586573317021678e+00 1.629725104971877725e+00 2.540249921374417800e-03 1.261137926704241075e+00 6.916421764668487793e-01 1.346148367342236529e+00 9.607739423269904266e-01 -7.453154975788364167e-01 -3.143651837414576655e-01 3.234602040571153692e-02 1.421956315552515893e+00 -3.735442651587399521e-01 1.078815859472963101e+00 -1.044744114626738885e+00 1.077507682185518512e+00 2.160580260048995394e-01 3.690047254207048377e-01 -5.509462693844086739e-02 2.457126156234706038e-01 -1.020691958792251663e-01 -6.402962179346467497e-01 7.059169412072038297e-01 -5.243307237001133547e-01 1.232496865951060450e+00 -1.384904147924047590e-01 -2.905243725866636650e-02 -3.501955631486333154e-01 2.112258947273376875e-01 6.309800827472903384e-01 -4.429023439836350384e-01 -8.507317555508198126e-02 -7.673395672412790525e-01 -4.430308991415992659e-01 1.914027922133701543e+00 1.258220753059715313e-01 -8.833847656737501275e-01 1.160644817061658118e+00 -2.826706808763090883e-01 1.289988789475219333e+00 -2.196544851041085655e-01 3.934698004225734569e-01 -7.681623202522503968e-01 -3.032749873741940605e-01 1.956827533764437632e+00 4.121930878491247841e-01 4.683578079224605117e-01 -7.539909138588988258e-01 -6.803406354198919814e-01 -5.861657546809380115e-01
-2.580194580057083020e-01 9.159092206387160762e-02 4.993982221438866276e-01 -3.632655089485470334e-01 -5.730788396001730289e-01 -1.437025036948458290e+00 1.628295057394683054e-01 -3.972215541526033511e-01 1.152467680573865616e+00 7.320264937897517088e-01 3.060687480670740701e-01 3.295048675845964059e-01 1.234394340082613395e+00 1.266075473211333735e+00 2.356827421990965177e-01 -1.265090740701327043e-01 -2.658906332175459686e-01 -1.920922592365642556e-02 -1.320315465459627857e+00 -9.492008927864129531e-01 2.123329089035998152e+00 -1.656371503894084607e-01 -4.170488732757521300e-01 -1.022841401033414560e-01 -2.370495406385729198e-01 4.244757618616651906e-01 6.298688519618469983e-03 -3.204165321371527653e-01 -2.949867792299201708e-01 -4.535528817106606464e-02 -7.168698406657615652e-02 -1.422983728374966672e+00 2.969418460722411668e-01 1.081398275486149529e+00 -1.446806027587013710e-01 -1.266017880500565518e+00 4.184645226752549130e-01 5.612558788325129333e-01 -2.199832777761180136e+00 -1.377308080750253350e+00 4.011748823703212286e-01 3.423902081776733497e-01 -3.485521140092178727e-01 6.254995192529566594e-01 8.488800470555022404e-01 -3.603812454244601643e-02 1.862018618986403806e-01 -9.812316959447960896e-01 1.002862901044499822e+00 3.840276811804120838e-01 -4.648780769066830354e-01 2.060023901268693614e+00 -6.492102325878906788e-01 5.424698564888751351e-01 -1.181545314643492744e-01 7.436093135223342809e-02 -1.042639923801179203e+00 3.795570470070459002e-01 -2.226009693246501497e-01 -2.288384655890775832e-01 -1.086647953916779485e+00 2.821816570554129266e-01 -1.594932422799789917e-01 -2.432078469256943876e-01 -1.442630556056333779e-01 5.098965505638826112e-01 3.103604334605539750e-01 2.831309083418213079e-01 -8.986879716778195526e-01 -4.871212045582966853e-03 1.519830499517050432e-02 -4.918299228842128445e-01 1.433981365028496047e-01 -1.810091076919571496e+00 8.983742970923865867e-01 4.997437784084947099e-01 3.859673214037773747e-01 9.492651703653951500e-01 5.770234260671494031e-01 -4.019302724785194653e-02 -1.000449149398562110e+00 3.510126597326543307e-01 -5.563764392568203154e-02 6.201793925957623799e-01 -2.056901553592056953e+00 -3.004714564893087858e-01 1.677896779543625871e-01 -1.147354784831309676e-01 -4.143317314570187926e-01 -2.991406534940623807e-01 9.168589861457563384e-01 -1.150558379367779827e-01 -9.904125911059740162e-01 -1.876082039047065608e+00 3.311724850937091680e-01 -1.074397161583414417e-01 -1.336577692942110929e+00 8.090901687830263922e-02 -8.456769667396639434e-02 3.033901727957300648e-02 -1.142071682059609072e+00 2.588221564120373186e-01 1.433533993078780211e-01 -7.793507327601988388e-01 5.978565607462108522e-01 -1.137370677043170852e+00 1.059956817799601270e+00 -4.371219898609285948e-01 4.969140222713846478e-01 1.240709483662451484e+00 1.849891753825316343e+00 9.271747662414430158e-01 -1.096613549762171624e+00 -1.327924902369850280e+00 1.737474381950597335e+00 1.540615297456717214e-01 -3.608718119072518715e-01 1.299255559481917510e+00 1.300535968855242031e-01 -7.989641361004949927e-01 -3.808276861883649334e-01 1.326164725147003232e+00 -2.631297826451047817e-01 1.791564735995021085e+00 8.471270689215010946e-03 1.233084620133273024e+00 -4.710615800047655566e-01 7.032985297497871269e-01 -2.090628770614936904e+00 -1.496252969325767346e+00 5.173023561038895268e-01 -1.697447447966835332e+00 -1.193275715697418526e+00 -1.200185298327683281e+00 9.183471406543510795e-01 6.281019898707858040e-01 -1.248535921679317262e+00 3.878190298990950025e-01 5.530052087943646555e-01 -9.184278732935526879e-01 -1.173991413561511071e-01 -2.221998772318015403e-01 4.646420496366605590e-01 2.933236868623676941e+00 -1.570548080437123017e-01 5.048103942941833955e-02 -1.181334484184431433e-01 -2.855757703359862010e+00 -2.420796468593997552e-01 4.498623202358217887e-01 -2.207389764166953205e-01 1.253608193991956554e+00 1.215257619268048928e-01 -6.237316287206317034e-01 4.008349825326637354e-03 6.440202037505562971e-02 1.149797332832631219e-01 2.360720072174124218e-01 -9.680681619898844348e-01 2.275554851125939915e-01 -5.245240706576916878e-01 -2.350811040598236451e-02 6.786118256555879746e-01 2.056522572986378139e-01 1.037573822136122592e+00 3.642492130172897968e-01 -6.138483081763368432e-01 4.705087928255190510e-01 -1.040972820512698349e-01 4.943573172897907098e-01 1.704109176252544877e+00 -6.908693028571674111e-01 1.397288637621695750e+00 -4.107445283291831784e-01 -5.593352647725264859e-01 -1.212069965571166197e+00 1.094698077908503597e+00 2.278921967823340111e+00 7.237141172757803886e-01 -4.482656651739052589e-01 2.085653686001718743e+00 3.796490925001483416e-03 3.608250178297529032e-01 3.882535463330143433e-01 1.049832841999597324e-02 8.433835427215809200e-02 -1.254946196076049070e+00 4.855518031898686249e-01 -7.529511597412835711e-01 -7.860392005187650799e-01 1.025739034293929652e+00 -1.455589944420397908e+00
3.470063667898551918e-01 2.046253586968190263e-01 1.851455498766793939e+00 -1.033568043413955140e+00 -1.764484849080159012e+00 -5.744199270080565523e-01 -5.493213321877399302e-02 1.915563384940426994e+00 -2.755466682425599112e-01 5.635410753204862511e-01 1.550025535019703415e-01 -2.178300303022793205e-01 -7.360209596580181701e-01 5.832269837698742521e-01 -2.360905191601592457e-01 4.176705660196674552e-01 4.441554996634708985e-01 -4.910663052459048883e-01 3.305759891607548684e-01 3.884834029554544432e-02 5.867247125077666992e-01 -3.784900391959422072e-01 1.124266278460922669e-01 4.235378234291577171e-02 -7.935586488184124265e-01 -5.802414187813115243e-02 -1.025804854534807520e+00 4.250167219663789075e-01 7.867575667414693497e-01 -7.688112666896542748e-03 -1.357455050595512136e-01 -3.339456769613149412e-01 2.283139605445832793e-03 -1.213678961928247452e-01 -6.119678033256352734e-01 -2.189464032940412197e-01 7.340710350220156499e-01 3.172587032369179189e-02 -3.180455636477857340e+00 -1.001787665703286256e+00 -5.767169505705626031e-01 9.127879014033431215e-02 4.221597121357804905e-02 1.638785158284569721e-01 4.572197890364341766e-01 2.289017147267960461e-01 -5.926444204217064943e-02 -5.578239703354982426e-01 -7.231191640047217595e-01 2.935587885352528015e-01 -3.121478643768894612e-01 -1.149408067814315260e+00 -2.662490449979503793e-01 5.049240370538238265e-01 1.404541205413409211e+00 2.055185599343549718e-01 8.567944168004158756e-02 -4.869016323484937625e-01 -4.059915870289273476e-01 5.947506681297933806e-01 4.725620758085246620e-01 -4.194214872711410913e-01 3.060831462447660689e-01 -6.704686277294978902e-01 -2.136000513846222082e-01 -2.366957568438551266e-03 7.302251789163559659e-01 9.694519297102119904e-01 1.664552754146932101e-01 3.913049315624547164e-01 -1.025927239045189454e+00 -6.471399803240337478e-01 -1.738523392039586224e-01 5.952582038934364217e-01 2.391758429513022866e-01 1.195259578895123465e+00 1.219962738049541889e-01 4.476038632207051116e-01 1.686668355081845316e+00 5.700629355943307441e-01 -1.534938301681014194e-01 2.331841441489025391e-01 1.920218110099998210e-01 2.237661932764384853e-01 -7.211070186722645659e-02 6.400375649568225134e-01 1.247730652169829257e+00 2.287926999528422933e-01 1.154929768959197522e+00 -7.755269881417089506e-01 2.185679369089943425e-01 3.229490687490493284e-01 -1.485413712626849903e-01 -1.812964027589757388e+00 -1.337343367462946020e+00 5.747315447109619946e-01 1.612837585201056523e-01 -1.283633536686096810e-01 8.124171762711422939e-01 1.716216501029622088e-01 -2.696917521282341523e-01 -4.056599147213794665e-01 -4.170550439233343676e-01 -6.921029181529928520e-01 2.673211950153725480e-01 -1.578103524181000417e+00 -2.107187703402001233e+00 -5.150073894239110689e-02 1.268340615094664559e+00 1.070536393079430715e+00 5.608522156365051137e-01 1.682498539978115604e+00 -7.121904329158612601e-01 -1.316763229334758645e+00 -7.029154353790534326e-01 2.145328476108111435e-03 1.196808925658909173e+00 1.213266556981497768e+00 -1.654237488271877166e-01 -5.476372596184078123e-01 5.844400302404254566e-01 1.600203698496957871e+00 -9.479045425735008745e-01 1.160308516768423726e+00 -5.062296432381090810e-02 6.064594719171813031e-01 7.859502403494536549e-02 1.108064214792366942e+00 -9.455540400652820976e-01 -1.223138050451259895e+00 2.438794190708997722e-01 6.391356219685450091e-01 -1.319391410984180668e+00 -5.358163557332752402e-01 7.580121192000217611e-01 -5.529424738772781289e-01 -1.377159985208278592e-01 -3.220476399814037327e-01 4.479828438263838697e-01 -1.068091273974949740e+00 5.468273621232327270e-02 2.434459310782441932e-01 -5.481468522645782659e-01 2.503584961881737403e+00 2.254723773329405656e-01 5.848436934364332346e-02 -7.652436039458291317e-01 1.510029454273852934e-01 -2.156282918228565215e+00 -3.407945815570205539e-02 -1.155872335377391646e+00 1.142401297484629596e+00 -1.672451183052258566e-02 -3.420420808099060572e-01 -2.703977770557740301e-02 -1.298704314964566509e+00 -3.545412417084582435e-01 2.757739537618407177e-01 6.313498073815955458e-02 1.028831557173918831e+00 -2.641032023012104268e-01 2.923421425202787360e-01 -6.162754295587027364e-01 9.602129276176343264e-01 9.727306004589335309e-02 1.051440295694782812e+00 -7.438155159957090534e-01 -1.753708327298328373e-01 3.192369100076724031e-01 6.110175235979632413e-01 1.257759497152939554e+00 -1.959464971385233234e+00 7.901725059576329979e-01 -5.301167342497702384e-01 5.567708464814548064e-01 -4.651218174861833088e-01 8.441970397611789911e-01 2.414139368293974464e+00 -9.388393470544910135e-01 -2.449181447472512790e-02 -3.629970857787175875e-01 -1.336979299255591336e+00 -1.553701184096218491e+00 5.880066645429866679e-01 -4.258749562009485068e-01 1.206171340703132561e-01 -2.150740134037776308e+00 2.484143822453113604e+00 6.003973248882170655e-01 -9.168702989996571073e-01 -2.407580998355268124e-03 -3.366833876053225150e-01
9.466081923605891291e-01 -1.852736936581381721e-01 3.072128889729562329e-01 1.253842678600083360e+00 8.490913917351955442e-02 -5.349930885016718207e-01 -1.695642533549016756e-02 -1.946371371436254050e-01 9.237222889191539776e-01 1.343298556600483994e-02 5.880524301792219299e-01 2.556996544692110351e+00 7.821758609116220562e-01 1.274372937326980759e+00 -1.123777768860658409e-02 -7.465203165192778600e-01 -8.534190725729055016e-01 9.689202255768716854e-02 6.228831646780673692e-01 -2.082423866213024000e-01 3.481529759547702607e+00 -2.896836218535771557e-01 1.887919912213049389e-01 -3.434906403298477184e-01 -4.192322540786176388e-01 2.032104292062008710e+00 1.378728358135443144e-01 -7.402504243550432905e-01 -7.757229062024464383e-01 -1.460751691122980367e-01 -4.832249548307148701e-01 -1.484673234916975837e-01 3.558499332165347417e-01 8.089317888284143221e-01 -1.218065263917988972e+00 -1.466387549248134858e-01 4.841284404808879893e-01 5.312151095194171946e-01 3.137928561782005743e-01 -5.150768092092117278e-01 2.072401706098127849e-01 9.907339790008846681e-01 6.656940891627041168e-01 2.964296823229113920e-01 1.155725782497312393e+00 -4.448306713530993939e-01 1.402068832615439853e-01 -1.277869123402977758e+00 2.441880028720773144e+00 -1.739366713875831749e-01 -5.630222267029424410e-01 1.145755558666233798e+00 -1.005784702674712427e-01 7.630108579623052778e-01 2.991031153879367688e-01 -1.467369710654982118e-01 -3.370438562682543382e-01 5.934039242949595838e-01 8.478161245681897773e-01 7.790087760400137284e-01 -9.726308416563531623e-01 5.428838040975200174e-01 7.220264451620252988e-01 -8.226774205385883887e-01 4.383268088013698993e-02 4.779598497811293756e-01 -6.381030669397759203e-01 -1.956107110659206061e+00 -8.027801674095069728e-01 8.970527500685136768e-02 -4.879974365149813975e-01 2.407220015471704055e+00 3.186414425159818098e-01 1.952608867700681428e-01 -2.018881622734433612e-02 -1.037162445630636642e-01 1.166509503367989253e-01 1.992461480890243664e+00 7.337856425713349395e-01 -1.691374502304602429e-02 -1.183517350766665199e+00 -2.748211029310094200e-01 -5.908405344451516106e-01 -4.894249129890168581e-02 -1.250104808827113612e+00 -6.051924322802850753e-01 -3.047286891004541975e-01 6.885938765611994139e-01 -1.856850701636239206e-02 -1.532053523936295347e-01 8.814163290950010055e-01 4.176052599994215520e-01 -7.061601675660722499e-01 4.324389825666052900e-02 1.205304878938453506e+00 -1.531775844795092434e-01 -1.972956578103269853e-01 9.539409785708724554e-02 -1.972002698831174516e+00 -1.939928186919083475e-01 -2.531539023870757354e+00 -5.275559155031215308e-01 -6.112437806759802444e-02 4.380285608348927912e-02 -9.536802687105208065e-01 -6.178258047637520678e-02 1.684663923058865864e-01 -3.884237533621590632e-01 -8.816137898176340526e-01 1.063242173416536929e+00 1.056612326810002500e+00 -6.491125306678378060e-01 -5.025879327232966043e-01 -2.372590341239915190e+00 5.009311138474529246e-01 -1.795252212146069004e-01 -8.978497920478924199e-02 5.731297474427269334e-01 -6.170714430968176067e-01 -1.027381454992081444e+00 -5.533528219415002024e-03 4.401502351619354658e-01 3.114876050855848733e-01 9.492913956176199930e-01 1.933736970511523157e-01 1.518140256300135826e+00 -6.768233662979887821e-01 6.824947056467416395e-01 -2.163604391584947439e+00 -1.142901634159426555e-01 1.196961649186570886e-01 -6.531116245217911676e-01 -8.679756302195181794e-01 -2.659086309396609393e-01 6.100168502483691579e-01 8.276077679568347722e-01 -7.414732410175997046e-01 -5.196194342710379610e-01 5.280387686764353994e-01 -9.246612557929251297e-01 -1.459584410288664313e-01 -3.605488813504456047e-01 -7.757532452197260682e-03 1.078653365753296178e+00 3.728958329419680973e-01 -1.683877165492124461e-01 -1.324478595695143479e+00 -1.201425084271090959e+00 -1.465971030536330488e-01 8.008996625588052920e-01 2.981024420383427409e-01 7.090521443996369300e-01 1.845661260687027350e-01 -8.184772664175788970e-01 6.710311851007497719e-01 1.237605647928561453e-01 -1.448412967061567302e+00 1.365224924342874069e-01 -2.786197535826647087e+00 2.170921236955642708e-01 -1.422051446369409500e-01 3.051585775486868601e-01 6.779582512324976440e-01 -1.770266231644129218e-01 3.061700495315498594e-01 -5.951008523800882521e-01 -5.882339500622675299e-01 2.804754729989108464e-01 -7.856828456208879707e-01 1.428592332806632725e-01 5.232858273761795687e-01 -4.570742645976185736e-01 -4.127057658190864120e-01 -6.972415249271415316e-01 7.456456272244887939e-02 -8.281029624253133381e-01 3.836934377697049370e-01 3.351098724718395427e-01 3.026188418479442976e-01 -4.370849659754347805e-01 1.605118105075616697e+00 -3.864697149611017735e-01 9.075449078409273396e-01 -9.272421291442163316e-01 -7.245522969057076323e-02 3.044870054034813922e-01 -1.723914898109155880e+00 2.786309635924391626e-01 -1.764688480450374408e+00 -2.813095388637831817e-02 2.612759658451965450e+00 -1.599548581411971870e+00
-2.398885527470563384e-01 6.378860658331321210e-01 -1.700399074393695642e+00 3.922634388202365097e-01 -2.672826284679832853e-01 2.167259986056820076e-01 -6.316531975543913935e-02 -8.360044766544304229e-02 -3.714662995854051686e-01 -4.475400998623548787e-01 -1.310013055100369417e-01 -4.144433173341318111e-01 1.285135060931119622e-01 -1.611035241886397351e+00 2.623445677402589382e-01 -1.484770936837028488e-01 6.696900976928661653e-02 1.418238500384188638e+00 9.855295519858583986e-02 1.790187138922275933e-01 -1.010599350450790856e+00 5.164760035484950995e-01 -1.425882390076745575e-02 2.629595756159601172e-01 -3.752957006308454968e-01 -2.904708936409505227e-01 -1.455105548585188258e-01 9.391977588348955353e-01 2.825282417612846597e-01 -6.831652493506833457e-01 -4.670342040160600505e-01 2.793678417578905337e-01 2.314959578145154573e-01 -7.213461312660782720e-01 9.806321146880505601e-01 2.229028168355502992e-01 4.307924481033986730e-01 4.627934264651340501e-01 8.422676839504508739e-02 4.969114511682252711e-01 -4.574085080083258315e-01 2.385983731817266449e-04 4.037043336584266728e-01 -8.075176820908070985e-01 -8.487237239834176661e-01 4.941454583894656222e-02 7.848035283404122819e-03 -1.375259425752934694e+00 -1.777408756220625052e-01 -6.797626514296843947e-01 1.243760868891891525e+00 1.226287651821385272e-01 3.253499648791904897e-01 1.355079351276331778e-01 -7.378032483680350140e-01 -5.448892645617630093e-01 1.665997714122450790e-01 -8.291360316747143910e-01 1.006867651325403346e+00 1.591912405028892863e+00 -3.051873739040708022e-01 -5.934748867421558716e-01 -6.235012578775597225e-01 7.412279577762038718e-01 4.512424884117264279e-01 -2.029382008036956786e-01 -1.519902490405510287e-01 9.647910339030586757e-02 1.008235992426775418e+00 8.283955539648399924e-01 -3.727441378555702567e-01 3.752854162182083231e-01 -2.513973247086516080e-02 1.151807935503192937e+00 6.765847679248071511e-01 -1.293275687754050329e+00 -6.134652138056033710e-01 7.567116552220550796e-01 -6.383894878317203370e-02 1.790570747513641425e+00 -1.385536639301231943e-01 -3.984726529499118541e-01 1.241739981808693064e-02 -1.357983669405061100e+00 -1.220934615043752086e-01 8.250839730956798235e-01 1.798270687255070777e-01 -7.409333093541496940e-01 1.282702797342435419e-01 1.119167780896058950e+00 8.509508135399911355e-01 7.669101930136782430e-01 8.374545788362677823e-02 1.653869820520099454e+00 3.636820276603512925e-01 7.231998966439233227e-03 3.547829254054311043e-01 1.851045150702571862e-01 8.518229317316209359e-01 -2.438537080393069628e-02 3.813501343503318264e-01 -1.198652920844748948e+00 5.574886984835274450e-01 -5.311544314848579695e-01 5.270720338885438450e-01 5.229063325498689574e-01 -3.511664117015796949e-01 4.593486624523229200e-01 2.681002392726362094e-01 -7.371141927213463729e-01 8.073294773395472967e-01 2.925241766239561336e-01 1.466937251103590079e+00 -9.543934927269067531e-03 -9.234955176205049687e-01 -7.487155243966761020e-01 2.510209152061321780e-01 -5.408032674210259128e-01 7.113800212000543910e-01 2.498474637242341367e-01 -3.115883923294288649e-01 -1.646277352890728254e-02 2.089711401007703806e+00 -7.852781539836164448e-01 -1.237242608162470336e+00 -2.663467469180032521e-01 2.429661632287214990e-01 -4.467867666366839852e-01 -3.951934679805586548e-01 4.251025968118991027e-01 -8.683700374441527536e-01 7.753007310636916838e-02 6.139588656121861693e-02 -4.407750132296419099e-01 -5.070271994381195801e-01 -2.512178617081334275e-01 -1.138808437929843403e-01 -3.894815052018891777e-01 -2.178572839957677310e-01 4.657229414048243421e-01 -9.930865383916314126e-01 3.813994995309900604e-01 -2.660721531005915130e-01 9.099298631314810537e-01 -9.144539762505603242e-02 1.148732381904055133e+00 -1.724915057238117777e+00 -8.393937048390011091e-01 -4.815218560980040197e-01 5.446470666441584063e-01 5.467240037762294280e-01 -3.755008746629565075e-01 1.392092952357410762e-01 2.350451086155936342e-01 7.359340563712343242e-01 -2.795725015693696358e-01 -3.942375318259361966e-02 -4.360159012818037305e-01 -4.496427480260188347e-01 -3.778580620393897638e-01 8.250207239579614160e-02 -1.863864671054771271e-01 1.969747841360481033e-01 -4.211117304880555579e-01 -1.554836069030727019e+00 1.679172046710631638e-01 -8.905530012818391183e-01 8.209110726681589920e-01 -3.753193547799109631e-01 -1.069198390995338421e-01 -1.468323589927077011e+00 1.017898712320003396e+00 2.664850722679728556e-01 8.030583607713416908e-03 -1.372681637725434500e+00 -3.771479233467949777e-01 -4.331928300129079257e-01 -2.426504317607611552e-02 -1.469926415636575889e+00 -1.175477511187578289e-01 4.819574009731870667e-01 -1.673973276122555642e-01 1.075863204604839307e+00 1.404893960766863126e+00 1.454056538496199813e-01 3.137218937310042866e-01 2.960938962503086858e-01 1.267407304647843569e+00 -2.383618316910724247e-02 -1.622717306200928578e+00 2.789785767395746574e-01 -3.000924758836300277e-01
-1.506768267026614483e+00 -2.080192148670763630e-01 3.902646632242077196e-01 -2.654262919869789239e-01 4.784822979430962755e-03 2.478054935951292670e+00 2.070303685920150683e-01 1.265452237805522628e+00 -7.878096621542491906e-01 -3.840935014212898402e-01 -1.435256117974869738e+00 -4.294698726382620291e-01 -2.600537148253352360e-01 -3.554714668314879478e-01 5.594401657814253026e-01 1.131432971407116073e+00 7.310942117841946475e-01 4.885255411038986750e-01 8.606716403646190450e-02 2.048912107634892343e-01 -1.554284310292744387e+00 2.085833149002237069e-02 9.020458324038468922e-02 9.527973518856220903e-01 -3.478481459642053242e-01 -3.927370360221769663e-01 3.661749692835948866e-01 7.679787434866773843e-01 5.315519240332836626e-01 -7.323987895272161541e-01 7.294898434128002096e-01 -7.761131996620260209e-02 -3.479288786034069325e-01 -4.481160269700348864e-01 -9.649350156799787678e-03 1.521315568701853804e+00 9.965595845391947687e-04 1.404650220187362852e-01 -2.496613158555018031e-01 1.152782897821193808e+00 1.517197689881941702e-01 -3.202257562827338228e-02 -6.640614386565576455e-01 -8.669338192193757342e-01 -3.120753592677976695e-01 5.255761660704714178e-01 -1.573607693196673318e-01 1.386137248999241178e+00 -6.102364224581721119e-01 9.083650897487395293e-01 -1.447248257330410737e-01 -1.372928463628726004e+00 1.934765411775237476e-01 -5.233058819808220630e-01 2.713706824912477944e-01 -4.388101761953156627e-02 1.228689062172158147e-01 9.207943166413591618e-02 -6.122454824668380757e-01 -8.539574615744598418e-01 1.499501301057209135e+00 2.203311994556326203e-01 -1.196185176032466407e-01 2.642205988714634302e+00 8.286382661030765595e-01 1.041173366559122737e-01 2.248861658126233842e-01 1.400765283313682108e+00 1.314964999785154208e-02 -5.494997667469945224e-01 1.792297500395417575e+00 -2.564099474279953883e-01 9.031745466907732389e-01 -2.628140511771445142e-01 -7.803179817687221353e-01 7.966408872857641543e-02 -3.674034423731016852e-01 1.974864336647459695e-01 3.111430772622405527e-01 -1.127233331506738712e-01 8.503877419481074007e-01 7.514722612040622973e-01 1.271878453041841717e-01 -1.815867317277222726e-01 -4.615947781722749554e-01 4.317149599169504137e-01 3.769921144953422565e-01 -1.151592477058444697e+00 -1.604769463487217551e-01 1.263578932043667169e-01 -7.681165546160151347e-01 8.673395392979109664e-01 1.222254105185097472e+00 8.086355977444645848e-01 -8.041474800696153391e-01 -1.732537863884768270e-01 2.574381830034569330e+00 7.815721658898217017e-01 1.358205298497391578e+00 1.054193432957746035e+00 7.418172546203121165e-01 -4.817568549267627898e-01 1.214506857145537244e-01 3.034783102120303777e+00 3.942087354705521851e-01 8.399166672215998553e-01 -1.277947284939020101e+00 -1.298648779136326037e-01 4.875994297459239624e-01 -1.479581936440957701e+00 -8.690858325636978687e-01 -1.430831249437739094e+00 2.795354776838759880e-02 1.549722144846907568e-01 -9.260090280690228548e-01 -7.661846277021278073e-01 4.623491398392093887e-01 -1.106824943069591116e+00 2.173285109200290499e+00 9.511389903478827401e-01 -2.340917435641304556e-01 -1.655452077404323985e+00 -2.548996814322307958e-01 -1.280374920542017847e+00 8.667651548521265736e-02 -9.589078356539809667e-01 1.174289147307356229e+00 -1.479024521276024684e+00 1.695246583662486595e+00 4.513823564235915908e-01 -6.049173242422415386e-01 1.072165444041154103e+00 6.324656661527257029e-01 -9.904609278453686827e-02 -1.724479512362935063e+00 -1.142818844637697451e+00 4.668136033649933903e-01 1.275750534399726077e-01 -5.559403801610054430e-01 7.720071479166464856e-01 2.408696857126398083e-01 -7.150618409241517037e-01 -1.443236822181293233e+00 -1.353906928235697471e+00 -3.575468613016634101e-01 6.236210712847823912e-01 3.708770027412968129e-01 2.949163310033557361e-01 5.172699602040825573e-02 1.313163684911758500e+00 8.478315511871454824e-01 -4.570799210245690691e-01 -2.429369554968320077e+00 -7.242231957013189891e-02 6.304756323074385271e-01 -6.257062359469632851e-01 1.136184884266107975e+00 -1.944612736875302783e+00 6.810343190522673007e-01 -1.819132618289515779e+00 -3.709145408474224248e-01 1.280974501798763265e+00 -1.421929061859027676e+00 6.814420960133299454e-01 -1.616025753118571329e+00 -2.097850485168738788e-01 -7.794314653994004471e-01 -7.834418721072544667e-01 1.681753434282554638e-01 -8.306473261117426343e-01 -1.192524953574906954e+00 3.344285301346288097e-01 -8.237984215160368828e-01 -5.926768163215134777e-01 5.503096642421695384e-01 1.153890014841582268e+00 -1.215155289362309432e+00 -2.220756415271448070e+00 -1.237189129216757222e-01 -4.600269194657424787e-02 -1.004493494668118769e+00 -3.542311666674483744e-02 -1.830671729268390779e-01 -5.353443011932301765e-01 6.142406585184438939e-01 -1.459338612826636794e+00 7.169444026573806861e-01 -8.150165615651803197e-01 5.835529996504718042e-01 2.336849950443314339e-01 -8.773637562953344737e-01 1.551615505213405521e+00