5.147639999999999993e-01 2.242360000000000131e+00 1.080619999999999914e+00 3.418219999999999814e+00 3.963499999999999801e+00 3.040869999999999962e+00 1.559839999999999893e+00 5.200420000000000265e+00 4.573199999999999932e+00 3.919189999999999952e+00 1.061849999999999961e+00 3.817470000000000141e+00 6.655890000000000306e+00 1.247179999999999955e+00 1.716590000000000060e+00 8.655570000000000874e+00 4.934050000000000047e+00 1.129739999999999966e+00 8.381800000000000139e+00 3.683330000000000215e+00 3.269730000000000025e+00 9.989900000000000446e+00 1.562419999999999920e+00 3.430050000000000043e+00 1.701920000000000099e+00 7.703759999999999941e+00 1.007949999999999902e+00 4.177139999999999631e+00 1.034210000000000029e+01 1.207920000000000105e+00 1.034950000000000037e+00 1.120279999999999987e+01 4.765979999999999883e+00 4.565789999999999793e+00 8.291600000000000747e+00 4.272549999999999848e+00 9.064519999999999911e+00 8.566119999999999735e+00 1.065509999999999957e+00 1.016050000000000075e+01 1.104519999999999946e+01 1.612610000000000099e+00 8.937450000000000117e+00 9.489119999999999777e+00 3.326880000000000059e+00 1.076200000000000045e+01 7.596330000000000027e+00 5.398249999999999993e+00 1.545960000000000001e+00 1.857450000000000045e+00 7.384330000000000283e+00 6.188119999999999621e+00 3.627580000000000027e+00 8.087400000000000588e+00 1.355310000000000126e-01 3.590170000000000083e+00 1.098129999999999917e+01 3.919779999999999820e+00 1.556329999999999991e+00 1.092300000000000004e+01 7.893349999999999866e+00 1.350449999999999928e+00 7.705409999999999648e+00 1.143929999999999936e+01 5.395310000000000272e+00 7.108249999999999957e+00 6.954989999999999561e+00 4.132430000000000270e+00 1.076759999999999984e+01 8.474999999999999645e+00 1.136870000000000047e+01 1.080330000000000013e+01 1.954800000000000093e+00 6.974510000000000431e+00 7.962150000000000283e+00 4.636770000000000280e+00 9.576969999999999317e+00 7.526519999999999655e+00 2.066730000000000178e+00 9.882799999999999585e+00 1.125709999999999944e+01 4.894379999999999953e+00 8.096439999999999415e+00 9.851739999999999498e+00 9.236769999999999925e+00 8.018530000000000157e+00 7.242239999999999789e+00 1.103040000000000020e+01 1.134680000000000000e+01 9.524259999999999948e+00 6.831900000000000084e+00 8.797800000000000509e+00 9.854739999999999611e+00 1.061999999999999922e+01 5.326399999999999579e+00 1.158789999999999942e+01 3.596260000000000012e+00 2.043839999999999879e+00 1.647710000000000008e+00 1.236220000000000097e+00 5.202820000000000000e+00 1.274089999999999945e+00 5.753860000000000419e+00 4.287270000000000358e+00 5.319829999999999615e+00 1.429310000000000080e+00 2.562510000000000066e+00 4.765109999999999957e+00 9.837659999999999627e+00 2.147800000000000153e+00 5.010569999999999746e-01 6.313489999999999824e+00 5.345989999999999576e+00 1.510780000000000012e+00 1.105039999999999978e+01 4.809450000000000003e+00 3.709459999999999980e+00 7.035849999999999937e+00 1.872249999999999970e+00 5.013600000000000279e+00 4.912110000000000198e+00 8.055859999999999133e+00 1.792869999999999964e+00 1.378910000000000080e+00 1.127759999999999962e+01 2.078689999999999927e+00 5.287860000000000227e+00 1.056900000000000084e+01 5.114510000000000112e+00 2.274030000000000218e+00 8.824970000000000425e+00 5.146829999999999572e+00 1.145480000000000054e+01 8.428240000000000620e+00 2.827560000000000073e+00 6.697309999999999874e+00 9.867089999999999250e+00 5.371280000000000499e-01 9.594379999999999242e+00 1.140850000000000009e+01 4.948540000000000383e+00 8.157149999999999679e+00 7.029219999999999580e+00 4.300779999999999603e+00 4.405509999999999593e+00 1.452339999999999964e+00 8.108570000000000277e+00 1.913569999999999993e+00 4.500549999999999606e+00 7.827230000000000132e+00 4.112160000000000259e+00 4.651390000000000136e+00 1.036050000000000004e+01 8.206419999999999826e-01 1.034089999999999954e+00 1.099729999999999919e+01 1.102699999999999925e+01 1.923000000000000043e+00 7.682559999999999611e+00 8.400460000000000704e+00 5.046090000000000408e+00 7.109200000000000408e+00 1.027389999999999937e+01 4.094369999999999621e+00 9.081899999999999196e+00 6.681289999999999729e+00 1.400640000000000107e+00 1.079110000000000014e+01 5.277230000000000310e+00 6.806479999999999642e+00 7.555659999999999599e+00 1.350659999999999972e+00 1.059370000000000012e+01 8.486510000000000886e+00 4.690019999999999634e+00 1.069769999999999932e+01 1.055690000000000062e+01 2.310569999999999791e+00 6.804140000000000299e+00 1.082770000000000010e+01 1.136180000000000057e+01 7.741699999999999804e+00 9.162559999999999150e+00 7.817239999999999966e+00 1.057259999999999955e+01 8.038930000000000575e+00 1.128330000000000055e+01 1.004010000000000069e+01 1.164680000000000071e+01 8.166610000000000369e+00 6.710609999999999964e+00 1.041680000000000028e+01
6.169529999999999959e+00 3.012869999999999937e+00 1.037010000000000076e+01 9.285529999999999617e+00 7.318979999999999819e+00 1.605429999999999913e+00 6.387579999999999814e+00 1.483659999999999979e+00 6.280679999999999596e-01 6.379839999999999733e+00 5.798140000000000072e+00 4.868089999999999584e+00 6.012470000000000425e+00 5.696170000000000400e+00 8.974970000000000780e+00 1.198099999999999987e+01 2.365590000000000082e+00 7.308130000000000237e+00 1.067890000000000050e+01 1.205109999999999992e+01 1.110899999999999999e+01 3.900620000000000198e-01 7.011250000000000426e+00 5.761059999999999626e+00 1.187809999999999988e+01 8.671530000000000626e+00 1.253339999999999899e+00 7.458540000000000170e+00 9.307809999999999917e+00 1.167520000000000024e+01 9.178060000000000107e-01 1.159900000000000020e+01 6.024810000000000443e+00 3.907150000000000123e+00 7.159909999999999997e+00 4.016429999999999723e+00 7.297250000000000014e+00 8.635109999999999175e+00 6.894000000000000128e+00 1.971540000000000070e+00 5.550189999999999735e+00 2.589679999999999982e+00 4.302760000000000140e+00 1.403100000000000014e+00 8.263040000000000163e+00 5.939090000000000202e-01 1.066189999999999927e+01 2.977250000000000174e+00 8.079689999999999372e+00 4.998059999999999725e+00 6.305460000000000065e+00 8.689019999999999300e+00 4.346779999999999866e+00 8.862579999999999458e+00 3.971359999999999779e+00 1.032290000000000063e+01 1.001030000000000086e+00 2.505180000000000184e+00 8.384219999999999118e+00 8.586489999999999512e+00 4.622609999999999886e+00 5.741660000000000430e+00 6.797539999999999694e+00 1.170860000000000056e+01 4.377200000000000202e+00 5.821279999999999788e+00 5.286330000000000418e+00 7.721429999999999794e+00 8.228440000000000865e+00 9.715989999999999682e+00 9.919990000000000308e+00 1.200820000000000043e+01 5.567739999999999689e+00 2.952240000000000197e+00 6.534150000000000347e+00 2.658570000000000100e+00 1.204739999999999966e+01 7.677410000000000068e+00 1.254879999999999995e+00 1.894910000000000094e+00 1.039520000000000088e+01 9.700670000000000570e+00 4.177139999999999631e+00 2.700950000000000184e+00 7.766729999999999912e+00 5.237729999999999997e+00 2.595089999999999897e+00 8.869949999999999335e+00 8.869219999999999882e-01 2.136099999999999888e+00 9.960200000000000387e+00 9.692360000000000753e+00 2.785530000000000062e+00 1.178570000000000029e+01 6.090589999999999726e+00 1.665569999999999995e+00 3.083460000000000090e+00 4.988339999999999996e+00 9.201480000000000103e+00 2.110959999999999948e+00 1.890830000000000011e+00 6.320450000000000124e+00 4.814549999999999663e+00 3.595439999999999969e+00 5.381089999999999485e-01 1.103180000000000049e+01 1.956839999999999968e-01 4.526690000000000325e+00 8.552400000000000446e+00 1.086159999999999926e+01 8.922010000000000218e+00 1.191230000000000011e+01 5.024519999999999875e+00 8.754590000000000316e+00 2.055750000000000188e+00 5.242700000000000138e+00 6.158629999999999605e+00 6.190439999999999721e+00 3.313499999999999890e+00 3.704549999999999788e+00 4.107560000000000322e+00 6.942110000000000225e-01 1.136790000000000056e+01 1.582869999999999999e+00 3.516360000000000152e+00 1.211239999999999917e+01 1.154720000000000013e+01 2.356030000000000069e+00 1.714579999999999993e+00 1.098279999999999923e+00 9.270300000000000651e+00 6.975660000000000416e+00 2.722980000000000178e+00 9.375280000000000058e+00 3.477269999999999861e+00 2.462750000000000217e+00 2.778590000000000226e-01 1.767490000000000006e+00 5.949150000000000382e+00 1.126919999999999966e+01 2.532230000000000203e+00 6.035050000000000026e+00 7.099450000000000038e+00 1.791539999999999910e+00 9.219599999999999795e+00 2.030419999999999892e+00 6.783489999999999576e+00 6.761459999999999582e+00 6.194079999999999586e+00 1.140279999999999916e+01 2.993059999999999832e+00 7.684750000000000192e+00 1.167549999999999955e+01 9.584690000000000154e+00 7.068690000000000140e+00 8.862249999999999517e+00 8.329499999999999460e+00 1.112049999999999983e+01 4.718250000000000277e+00 8.681099999999999928e-02 8.599249999999999616e+00 1.013719999999999999e+01 6.503079999999999750e+00 4.176590000000000025e-01 6.674680000000000391e+00 7.192750000000000199e+00 6.959560000000000191e-01 1.058970000000000056e+01 1.285160000000000080e+00 1.179090000000000060e+01 1.140199999999999925e+01 9.881909999999999528e+00 2.201519999999999921e+00 1.068239999999999945e+01 1.019780000000000086e+01 5.181770000000000209e+00 1.176430000000000042e+01 2.864320000000000199e+00 2.904819999999999958e+00 3.199160000000000004e+00 9.798780000000000712e+00 8.465540000000000731e+00 6.208179999999999588e+00 4.610669999999999824e+00 9.150499999999999190e+00 6.210869999999999891e+00 3.985899999999999999e+00 9.882630000000000692e+00 1.029659999999999975e+01 7.013189999999999813e+00 8.354129999999999612e+00 4.270349999999999646e+00
7.581570000000000142e+00 2.705779999999999852e+00 1.192290000000000072e+00 6.710110000000000241e+00 2.442110000000000114e-01 1.237299999999999933e+01 2.137519999999999865e+00 5.194209999999999994e+00 1.578459999999999974e+00 6.512089999999999712e+00 1.179100000000000037e+01 6.591140000000000221e+00 1.095519999999999960e+01 7.297990000000000421e+00 6.360570000000000057e+00 3.912189999999999834e+00 5.050600000000000200e+00 8.057959999999999567e+00 1.073249999999999993e+01 1.993000000000000105e+00 6.124460000000000015e+00 8.545009999999999550e+00 1.073460000000000036e+01 1.225000000000000000e+01 9.197179999999999467e+00 5.658170000000000144e+00 2.753750000000000142e+00 2.025920000000000165e+00 2.633550000000000058e+00 4.556750000000000078e+00 3.308429999999999982e+00 1.008910000000000018e+01 8.709600000000000009e+00 6.771449999999999747e+00 8.063789999999999125e+00 6.896289999999999587e+00 1.002650000000000041e+01 7.861710000000000420e+00 3.959210000000000118e+00 1.080150000000000077e+01 1.008580000000000076e+01 1.154269999999999996e+01 6.601679999999999993e+00 9.840009999999999479e+00 8.944729999999999848e+00 6.070020000000000415e-01 1.203860000000000069e-01 5.934280000000000221e+00 7.788389999999999702e+00 3.180390000000000050e+00 3.981520000000000170e+00 6.863069999999999560e+00 6.613769999999999927e-01 8.449400000000000688e+00 3.303249999999999797e+00 3.052290000000000170e+00 7.621100000000000207e+00 1.024680000000000035e+01 7.574300000000000033e+00 1.157729999999999926e+01 1.181419999999999959e+01 1.392879999999999896e+00 3.730519999999999836e+00 1.145100000000000051e+01 5.455540000000000056e+00 8.096009999999999707e+00 6.432549999999999990e+00 1.051239999999999952e+01 4.306700000000000195e+00 1.246720000000000050e+00 4.716109999999999580e+00 6.404090000000000060e+00 1.057230000000000025e+01 8.874810000000000088e+00 8.301059999999999661e+00 1.070810000000000040e+00 9.198819999999999553e+00 7.282829999999999693e+00 3.597529999999999895e+00 1.022729999999999961e+01 2.975359999999999783e+00 6.180959999999999788e-01 8.512460000000000804e+00 1.069389999999999930e+01 8.098720000000000141e+00 6.256599999999999717e+00 6.072309999999999874e+00 1.069400000000000084e+01 4.091370000000000395e+00 1.161589999999999989e+01 8.703379999999999228e+00 5.344979999999999620e+00 3.838969999999999883e-01 8.999040000000000816e+00 1.188519999999999932e+01 9.506479999999999819e+00 4.506300000000000416e+00 3.303960000000000008e+00 8.405169999999999586e-01 3.895440000000000014e-01 7.085910000000000153e+00 1.505290000000000017e+00 1.927750000000000075e+00 6.426750000000000185e+00 3.961160000000000014e+00 4.595900000000000318e+00 3.328019999999999978e+00 3.423039999999999861e+00 6.526460000000000150e+00 9.508839999999999293e+00 1.446239999999999970e+00 1.053030000000000044e+01 4.056000000000000050e+00 4.184179999999999566e+00 5.726409999999999556e+00 6.242320000000000313e+00 4.478060000000000151e+00 4.976040000000000241e+00 3.509019999999999917e-01 2.198310000000000208e+00 3.558870000000000200e+00 8.472459999999999880e+00 1.068369999999999997e+01 8.565690000000000026e+00 4.806429999999999869e-01 4.076430000000000220e+00 2.258599999999999941e+00 1.110459999999999958e+01 1.170570000000000022e+01 4.353049999999999642e+00 1.008450000000000024e+01 5.805880000000000152e+00 1.195689999999999920e+00 9.814090000000000202e+00 3.855869999999999909e+00 1.008130000000000059e+01 1.372840000000000060e+00 9.167939999999999978e-01 1.172680000000000078e+01 1.190850000000000009e+01 8.741110000000000824e+00 4.913700000000000401e+00 1.109479999999999933e+01 1.063410000000000011e+01 7.555039999999999978e+00 7.704869999999999663e+00 1.128309999999999924e+01 3.460039999999999782e+00 7.489770000000000039e+00 6.356740000000000279e+00 4.649359999999999715e+00 5.402180000000000426e+00 1.134919999999999973e+01 2.239900000000000002e+00 4.132930000000000215e-01 1.703130000000000033e+00 3.760139999999999816e+00 7.620239999999999903e+00 2.170739999999999892e+00 8.815149999999999153e+00 5.264689999999999870e+00 9.620409999999999684e+00 7.169539999999999580e+00 4.067409999999999748e+00 7.144689999999999763e+00 8.055770000000000763e+00 2.666799999999999837e+00 1.085539999999999949e+01 5.406640000000000335e+00 7.351960000000000051e+00 8.907090000000000174e+00 1.132520000000000060e+01 1.790470000000000006e+00 1.069110000000000049e+01 3.938149999999999817e+00 8.310499999999999554e-01 5.481620000000000381e+00 4.560170000000000279e+00 1.452029999999999932e+00 9.785920000000000840e+00 1.320340000000000069e+00 5.043090000000000295e+00 1.083019999999999960e+01 9.297119999999999607e+00 9.771449999999999747e+00 5.987650000000000361e+00 1.010459999999999958e+01 9.831400000000000361e+00 1.735149999999999970e+00 6.477610000000000312e+00 5.407110000000000305e+00 1.526690000000000103e+00
4.943319999999999936e+00 6.313509999999999955e+00 2.797359999999999847e+00 8.520400000000000418e+00 6.634500000000000064e+00 7.490789999999999615e+00 2.562910000000000021e+00 4.641539999999999999e+00 3.416959999999999997e+00 1.478860000000000063e+00 6.924339999999999939e+00 3.867809999999999970e+00 4.922159999999999869e+00 3.197519999999999918e+00 1.023609999999999909e+00 1.102420000000000044e+01 1.927100000000000035e+00 6.769549999999999734e+00 9.908630000000000493e+00 5.040790000000000326e+00 1.416819999999999968e+00 8.865880000000000649e+00 4.786609999999999587e+00 5.586310000000000109e+00 2.786640000000000228e-01 8.772579999999999600e+00 8.026820000000000066e-01 7.253989999999999938e+00 8.758599999999999719e-01 1.190060000000000073e+01 1.132620000000000005e+01 9.374190000000000023e-01 4.593140000000000001e+00 4.250569999999999737e+00 1.334729999999999972e+00 1.152130000000000010e+01 1.113760000000000083e+01 5.702359999999999651e+00 1.193069999999999986e+01 8.477209999999999468e+00 2.552119999999999944e+00 9.029430000000000511e-01 1.107549999999999990e+01 1.400749999999999940e+00 1.232469999999999954e+00 1.010050000000000026e+01 9.152100000000000790e+00 3.744240000000000013e+00 3.339139999999999997e+00 4.289930000000000021e+00 8.122939999999999827e+00 5.461269999999999847e+00 3.267759999999999998e+00 1.013480000000000025e+01 3.128839999999999844e+00 5.217950000000000088e+00 1.133340000000000014e+00 5.029670000000000307e+00 1.363189999999999902e+00 8.656850000000000378e+00 8.019970000000000709e+00 1.164039999999999964e+00 6.957849999999999646e+00 7.546170000000000044e+00 3.239770000000000039e+00 1.109919999999999973e+01 5.451830000000000176e+00 5.503420000000000201e+00 5.001550000000000162e-01 6.738710000000000200e+00 1.164530000000000065e+00 2.697280000000000122e+00 1.699500000000000011e+00 5.921850000000000058e+00 8.518620000000000303e+00 5.283639999999999448e-01 2.479610000000000092e+00 8.991740000000000066e+00 1.896630000000000038e+00 1.030170000000000030e+01 1.200650000000000084e+01 4.044559999999999711e+00 8.718450000000000699e+00 1.234380000000000061e-01 5.017129999999999868e+00 7.929540000000000255e+00 4.353430000000000355e+00 5.523649999999999949e+00 9.391999999999999460e+00 9.958890000000000242e+00 1.131780000000000008e+01 1.137979999999999947e+01 1.210670000000000002e+01 7.774830000000000352e-01 1.996129999999999960e+00 3.120950000000000113e+00 3.021770000000000067e+00 3.518520000000000092e+00 1.090520000000000067e+01 1.131049999999999933e+01 6.294489999999999696e+00 4.507810000000000095e+00 6.980570000000000164e+00 3.785120000000000040e+00 7.535960000000000214e+00 4.662499999999999645e+00 3.415540000000000020e+00 4.460469999999999935e+00 8.873480000000000700e+00 5.709969999999999768e-01 9.856310000000000571e+00 8.295970000000000510e+00 6.603360000000000340e+00 3.533539999999999903e+00 2.709519999999999929e+00 1.123969999999999914e+00 1.728490000000000082e+00 2.804710000000000036e+00 8.976850000000000662e+00 2.543699999999999850e+00 2.741680000000000117e+00 7.808069999999999844e+00 6.345889999999999809e+00 6.143049999999999899e-01 1.839469999999999938e+00 1.153739999999999988e+01 9.483159999999999812e+00 1.123569999999999958e+01 1.586030000000000051e+00 1.364130000000000065e+00 9.301890000000000214e+00 7.901419999999999888e+00 2.181200000000000083e-01 1.056639999999999979e+01 3.759860000000000202e+00 6.557240000000000180e+00 9.073689999999999145e+00 7.810049999999999493e-01 5.991050000000000431e+00 2.005530000000000090e-01 5.460589999999999833e+00 9.816910000000000025e+00 8.077949999999999520e+00 5.726989999999999581e-01 5.810830000000000162e+00 9.013070000000000803e+00 7.126369999999999649e+00 1.543120000000000047e+00 3.378470000000000084e+00 6.159749999999999837e+00 4.318920000000000314e+00 6.466689999999999827e+00 9.522330000000000183e+00 1.198889999999999922e+01 1.153359999999999985e+01 8.940599999999999881e+00 2.028500000000000192e+00 7.004320000000000546e-01 5.717229999999999812e+00 1.104599999999999937e+01 5.898959999999999759e+00 8.567610000000000170e+00 1.119870000000000054e+01 8.141049999999999898e+00 6.480660000000000309e+00 5.789200000000000124e+00 1.056150000000000055e+01 3.302599999999999980e+00 4.808760000000000367e+00 5.681600000000000428e+00 6.368780000000000108e+00 1.175200000000000067e+01 8.793469999999999231e+00 1.023889999999999922e+01 3.210090000000000110e+00 1.140189999999999948e+01 9.548170000000000712e+00 1.366340000000000110e+00 6.678049999999999820e+00 1.139390000000000036e+01 9.448589999999999378e+00 1.047320000000000029e+01 6.129050000000000331e+00 8.983620000000000161e+00 2.733789999999999942e+00 3.872920000000000140e+00 8.200189999999999202e+00 9.130860000000000198e+00 9.407590000000000785e+00 8.777779999999999916e+00 5.505939999999999834e+00 1.025639999999999930e+01
8.130959999999999965e+00 5.062490000000000379e+00 4.151909999999999989e+00 4.848720000000000141e+00 4.128759999999999764e+00 2.402260000000000062e+00 1.433060000000000000e+00 3.570320000000000160e+00 1.108670000000000044e+01 4.986620000000000275e+00 5.387870000000000159e-01 6.511059999999999626e+00 1.157769999999999966e+00 4.082169999999999632e+00 4.772719999999999629e+00 3.212680000000000202e+00 6.731989999999999696e+00 1.103969999999999985e+01 9.452769999999999229e+00 1.612679999999999891e+00 1.022129999999999939e+01 7.063729999999999620e+00 1.054720000000000102e+00 9.401020000000000820e+00 1.146170000000000044e+01 6.657890000000000086e+00 2.345810000000000173e+00 1.124390000000000001e+01 7.543959999999999555e-01 7.295350000000000001e+00 4.410370000000000346e+00 1.051079999999999931e-01 1.038059999999999938e+01 7.965799999999999770e+00 9.079729999999999634e+00 3.941530000000000200e+00 6.981620000000000381e+00 8.201209999999999667e+00 6.424640000000000128e+00 8.265750000000000597e+00 8.493499999999999661e-02 1.159009999999999962e+01 6.780719999999999636e+00 1.118290000000000006e+01 6.576800000000000423e+00 1.780080000000000107e+00 9.477240000000000109e+00 5.636409999999999698e+00 9.728979999999999961e+00 3.122609999999999886e+00 5.961750000000000327e+00 9.471799999999999997e+00 1.204190000000000005e+01 8.186540000000000816e+00 2.256789999999999907e-01 2.465759999999999952e+00 9.394539999999999225e+00 4.418449999999999878e-01 9.891220000000000567e+00 5.029500000000000082e-01 1.394730000000000136e-01 5.541660000000000474e-01 3.976119999999999877e+00 1.560499999999999943e-01 5.149269999999999570e+00 7.045440000000000147e+00 9.469450000000000145e+00 9.251500000000000279e-01 2.221620000000000150e+00 1.854260000000000019e+00 2.969250000000000167e+00 7.271819999999999951e+00 2.870789999999999731e-01 1.012349999999999994e+01 8.735350000000000392e+00 4.101110000000000255e+00 7.873639999999999972e+00 7.698719999999999786e+00 2.135800000000000143e+00 7.823279999999999568e+00 9.722210000000000019e-01 3.249390000000000001e+00 1.033399999999999963e+01 1.100779999999999959e+01 9.910769999999999413e+00 6.690520000000000245e+00 5.239349999999999952e+00 1.042040000000000077e+01 4.264859999999999651e+00 1.050530000000000008e+01 9.321910000000000807e+00 7.270909999999999762e+00 1.039160000000000039e+01 9.019690000000000651e+00 9.806350000000000122e+00 1.042580000000000062e+01 3.058619999999999894e+00 1.082379999999999898e+00 7.342999999999999527e-02 1.189269999999999960e+01 6.525769999999999627e+00 1.163449999999999918e+01 1.914009999999999989e+00 3.445190000000000197e+00 2.445819999999999883e+00 4.823339999999999961e+00 3.497619999999999951e+00 4.991970000000000240e+00 7.730269999999999975e+00 1.104460000000000086e+01 1.464949999999999974e+00 1.045079999999999920e+01 3.848269999999999857e+00 3.474200000000000177e+00 5.664760000000000240e+00 8.025209999999999511e+00 3.276289999999999925e+00 5.326839999999999797e+00 7.730829999999999647e-01 3.349029999999999951e+00 6.141110000000000291e+00 7.009260000000000268e+00 9.010179999999999856e-01 8.951180000000000803e+00 1.206160000000000010e-01 5.037060000000000315e+00 1.880560000000000009e+00 1.047070000000000078e+01 2.888500000000000068e+00 4.374249999999999972e+00 9.849449999999999150e+00 5.259140000000000370e+00 1.048900000000000077e+01 9.731619999999999493e+00 3.729210000000000136e+00 7.208169999999999966e+00 2.183670000000000222e+00 9.554030000000000022e-01 2.809089999999999865e+00 1.096039999999999992e+01 8.409140000000000725e+00 4.277319999999999567e+00 1.116750000000000043e+01 1.623450000000000060e+00 6.192650000000000432e+00 9.684689999999999799e+00 8.728790000000000049e+00 3.420720000000000205e+00 5.771200000000000330e+00 6.243509999999999671e+00 4.412510000000000154e+00 4.745910000000000295e+00 1.231489999999999974e+01 1.164700000000000024e+01 1.445589999999999931e+00 5.627229999999999732e-01 2.254700000000000149e+00 6.481690000000000396e+00 3.212270000000000181e+00 9.010170000000000456e+00 6.348819999999999908e+00 8.180149999999999366e+00 7.379509999999999792e+00 2.272920000000000051e+00 6.857779999999999987e+00 7.661959999999999660e+00 5.011169999999999902e+00 1.019410000000000061e+01 5.738150000000000084e+00 5.579810000000000159e+00 8.478999999999999204e+00 2.682709999999999817e-01 -1.877399999999999902e-02 1.044519999999999982e+01 2.665179999999999882e+00 4.338949999999999751e-01 4.949989999999999668e+00 3.727189999999999781e+00 2.893170000000000019e+00 9.353450000000000486e+00 1.665750000000000064e+00 7.373689999999999856e+00 9.148279999999999745e+00 9.513809999999999434e+00 9.281950000000000145e+00 6.809929999999999595e+00 9.686700000000000088e+00 8.516769999999999285e+00 8.960569999999999924e-01 8.576320000000000832e+00 5.437470000000000248e+00 7.840730000000000199e-01
4.685120000000000395e+00 2.965829999999999966e+00 7.009300000000000530e-01 1.041339999999999932e+01 9.027799999999999159e+00 2.407130000000000103e-01 6.180950000000000166e+00 2.935799999999999965e+00 3.595079999999999831e+00 5.193800000000000416e+00 3.980360000000000120e+00 5.701329999999999565e+00 7.953509999999999636e+00 4.663649999999999629e+00 5.821649999999999991e+00 1.530000000000000027e+00 4.927059999999999995e+00 9.092790000000000816e+00 1.166029999999999944e+01 1.200300000000000011e+01 1.082419999999999938e+01 1.010710000000000086e+01 3.948529999999999873e+00 3.143839999999999968e+00 4.732299999999999840e-01 8.705019999999999314e+00 1.615369999999999973e+00 6.562389999999999723e+00 9.485950000000000770e+00 1.177909999999999968e+01 1.290019999999999945e+00 1.129240000000000066e+01 5.024569999999999759e+00 1.969070000000000098e+00 8.569129999999999470e+00 5.276930000000000121e+00 9.523120000000000474e+00 6.708339999999999748e+00 3.091169999999999973e+00 9.123739999999999739e+00 3.041720000000000201e+00 1.253689999999999971e+00 3.996469999999999967e+00 5.996190000000000131e-01 1.059709999999999930e+01 1.212100000000000044e+01 1.148450000000000060e+01 3.102720000000000145e+00 1.100960000000000072e+01 3.114110000000000156e+00 8.177809999999999135e+00 4.124880000000000102e+00 3.531489999999999796e+00 1.050000000000000000e+01 4.528649999999999842e+00 9.601820000000000022e+00 1.227910000000000057e+00 5.705650000000000333e+00 5.707429999999999559e+00 1.105840000000000067e+01 7.250329999999999941e+00 1.141610000000000014e+01 7.527300000000000324e+00 1.328810000000000047e+00 4.156950000000000145e+00 6.194289999999999630e+00 8.556190000000000850e+00 2.236460000000000115e+00 8.452310000000000656e+00 9.102610000000000312e+00 7.146250000000000213e+00 1.121819999999999951e+01 7.969159999999999577e-01 6.517199999999999882e+00 6.389949999999999797e+00 3.739669999999999828e+00 1.027280000000000015e+01 8.000009999999999621e+00 2.558310000000000084e+00 2.402960000000000096e-01 7.358959999999999724e+00 7.564729999999999954e+00 3.865439999999999987e+00 1.170899999999999963e+01 1.079260000000000019e+01 8.734690000000000509e+00 4.269250000000000433e+00 9.650059999999999860e+00 1.334549999999999903e+00 1.196700000000000053e+01 9.974589999999999179e+00 1.096729999999999983e+01 1.922760000000000025e+00 1.157080000000000020e+01 5.749760000000000204e+00 1.427539999999999920e-01 1.887950000000000017e+00 4.232280000000000264e+00 1.209469999999999956e+01 1.940979999999999928e+00 4.054680000000000284e+00 2.986079999999999846e+00 7.254620000000000068e+00 4.384830000000000005e+00 8.520229999999999748e+00 6.819100000000000161e-02 2.158510000000000151e+00 4.295480000000000409e+00 8.916619999999999990e+00 1.157460000000000022e+01 1.001839999999999975e+01 1.081300000000000061e+01 3.822519999999999918e+00 1.074370000000000047e+01 9.918810000000000571e+00 6.599249999999999616e+00 5.677590000000000359e+00 9.532170000000000698e+00 2.287329999999999863e+00 5.765570000000000306e+00 4.300229999999999997e+00 5.866710000000000313e+00 2.368290000000000006e+00 3.864170000000000105e-01 1.545400000000000107e+00 1.380740000000000078e+00 2.044290000000000163e+00 1.080579999999999963e+01 1.347020000000000106e+00 4.388349999999999973e+00 6.954439999999999955e+00 6.224190000000000111e+00 4.193550000000000111e+00 8.656209999999999738e+00 3.869660000000000100e+00 3.882929999999999993e+00 1.570740000000000025e+00 3.490889999999999826e+00 6.046689999999999898e+00 1.159919999999999973e+01 2.977669999999999817e+00 6.507340000000000124e+00 6.255819999999999936e+00 4.315120000000000289e+00 5.650199999999999889e+00 1.522920000000000051e+00 8.661550000000000082e+00 3.379399999999999959e+00 3.341930000000000067e+00 7.176899999999999835e+00 2.498029999999999973e+00 7.272859999999999658e+00 1.206020000000000003e+01 7.057509999999999728e+00 8.256650000000000489e+00 9.593460000000000321e+00 9.876310000000000144e+00 1.175489999999999924e+01 5.882130000000000081e+00 1.009399999999999942e+01 6.368000000000000327e+00 8.719680000000000319e+00 5.357240000000000002e+00 3.594200000000000172e-01 5.817890000000000228e+00 6.125560000000000116e+00 4.397579999999999822e-01 -6.014300000000000201e-02 1.928339999999999943e+00 7.176499999999999879e+00 9.504070000000000462e+00 -1.022580000000000017e-01 -1.018000000000000025e-03 8.055419999999999803e+00 7.140159999999999840e+00 6.603010000000000268e+00 1.271339999999999915e+00 4.009119999999999906e-01 6.029499999999999638e+00 2.542180000000000106e+00 1.164039999999999964e+01 9.741590000000000416e+00 6.949469999999999814e+00 7.585619999999999585e+00 9.411590000000000344e+00 5.523609999999999687e+00 2.837289999999999868e+00 1.030279999999999951e+01 1.025459999999999994e+01 7.978679999999999772e+00 9.364020000000000010e+00 1.976599999999999913e+00