-1.049986442946641728e+04
-1.049491043280630402e+04
-1.049485454708745056e+04
-1.049818595281459238e+04
-1.049780778034282594e+04
-1.049758494551720105e+04
-1.049670028132082552e+04
-1.049762176152977554e+04
-1.049780295987812497e+04
-1.049500943521282352e+04
-1.049709603236063958e+04
-1.049469416723840914e+04
-1.049904785126183560e+04
-1.049598535640982300e+04
-1.049870228563258206e+04
-1.049627993072881873e+04
-1.049698094650191524e+04
-1.049379780361507619e+04
-1.049777186671601703e+04
-1.049553126519390025e+04
-1.049712510812914297e+04
-1.049845144268565127e+04
-1.049486785379959292e+04
-1.049813503609944019e+04
-1.049694398646577974e+04
-1.049470647300335077e+04
-1.049884527266954865e+04
-1.049504359859129909e+04
-1.049868742057709642e+04
-1.049957844370449311e+04
-1.049755038609958319e+04
-1.049755284419015697e+04
-1.049497125134676935e+04
-1.049677878056235750e+04
-1.049492684381149229e+04
-1.049557831971332598e+04
-1.049929560531116840e+04
-1.049587143829636261e+04
-1.049680042621390567e+04
-1.049689045040495148e+04
-1.050118359738426079e+04
-1.049831669023391441e+04
-1.049867084250806147e+04
-1.049633615243130407e+04
-1.049716846551754134e+04
-1.049383275312483420e+04
-1.049896363504122746e+04
-1.049811255897107367e+04
-1.049432891352069419e+04
-1.049921153061907535e+04
-1.050117408704831905e+04
-1.049619079614808106e+04
-1.049796254569754274e+04
-1.049692100284081425e+04
-1.049736701257439563e+04
-1.049930787159007377e+04
-1.049979197517196371e+04
-1.049723538690426903e+04
-1.049662031977733568e+04
-1.051092856070689231e+04
-1.049717787366577431e+04
-1.049752606042587286e+04
-1.049425876483320098e+04
-1.049657528871013710e+04
-1.049624102057602431e+04
-1.049821456096726797e+04
-1.049623442568751125e+04
-1.049860687540505569e+04
-1.049640132417558925e+04
-1.049794949653458025e+04
-1.049456218236381210e+04
-1.049808815529554886e+04
-1.049562905103818412e+04
-1.050418067090297336e+04
-1.049729488879836026e+04
-1.049648363796042031e+04
-1.050143029209112683e+04
-1.049920133046737101e+04
-1.049640890035135817e+04
-1.049790684901012173e+04
-1.049976658760371174e+04
-1.049631489786637940e+04
-1.049567571680278706e+04
-1.049889731490323175e+04
-1.049825469794207856e+04
-1.049751048313574938e+04
-1.049960182303908732e+04
-1.049476067601525028e+04
-1.049794055345051311e+04
-1.049959910631970888e+04
-1.049548609243972896e+04
-1.049790401740493689e+04
-1.049542629857027532e+04
-1.049648183495037119e+04
-1.049471527208514090e+04
-1.049708225879618294e+04
-1.049415315611633559e+04
-1.049655796948940770e+04
-1.049873056415965766e+04
-1.049457567246033068e+04
-1.049358502153176960e+04
-1.049224949635176927e+04
-1.049868325633153654e+04
-1.050000892875957470e+04
-1.049569987926546855e+04
-1.049731988525864290e+04
-1.049690065099049207e+04
-1.049464665792140477e+04
-1.049788117230962052e+04
-1.049399628016116731e+04
-1.050017215806996865e+04
-1.049990194662406975e+04
-1.049683012110224263e+04
-1.049973714096186450e+04
-1.049822066111299137e+04
-1.049603156735891935e+04
-1.049389651368136947e+04
-1.049898648121089718e+04
-1.049997371287497117e+04
-1.049933364657118000e+04
-1.049690478452870593e+04
-1.049799039206416455e+04
-1.049789270307800507e+04
-1.049641687115848981e+04
-1.049632696176603349e+04
-1.049818579229229726e+04
-1.049585084706549969e+04
-1.049536926454001150e+04
-1.049617043227357317e+04
-1.049571058675909626e+04
-1.049747670211180775e+04
-1.049852054050549668e+04
-1.049134394368907851e+04
-1.049407624127192503e+04
-1.049709863390306964e+04
-1.049618971751640311e+04
-1.049793929034132452e+04
-1.049860238991152619e+04
-1.049401516519351935e+04
-1.049399702047901519e+04
-1.049261379493473396e+04
-1.049752558741476969e+04
-1.049741429895848341e+04
-1.049771834263170058e+04
-1.049964382261542596e+04
-1.049716465954866544e+04
-1.049810827167177922e+04
-1.049538498593973236e+04
-1.049676159083550374e+04
-1.049664318229149285e+04
-1.049739276847532528e+04
-1.049208719810416733e+04
-1.049497727972227403e+04
-1.049570049997121532e+04
-1.049709173907148033e+04
-1.049608209998683924e+04
-1.049740762426449146e+04
-1.049741120373269041e+04
-1.049728813341974273e+04
-1.049359149985975091e+04
-1.049793954977113026e+04
-1.049660037763568289e+04
-1.049860060118896217e+04
-1.049927303209719321e+04
-1.049764575196030819e+04
-1.049959258839514041e+04
-1.049972362978422461e+04
-1.049763556243103267e+04
-1.049828960271377400e+04
-1.049892143080360802e+04
-1.050066747707248396e+04
-1.049773102813802143e+04
-1.049948060386562065e+04
-1.050566127802304436e+04
-1.049519557270503719e+04
-1.049891987121176862e+04
-1.049539672240204527e+04
-1.049639884404900295e+04
-1.049917179818606746e+04
-1.049686152077751831e+04
-1.049864285936054148e+04
-1.049725174562473512e+04
-1.049402771474624205e+04
-1.049319410420373424e+04
-1.049571725786914794e+04
-1.049498488589305089e+04
-1.049660686943592736e+04
-1.049526295791453595e+04
-1.049494546196894589e+04
-1.049848155214774488e+04
-1.049434203092910866e+04
-1.049690739097529513e+04
-1.049918159678382108e+04
-1.049556698397543369e+04
-1.049505736000764591e+04
-1.049270605565367441e+04
-1.049874624872393906e+04
-1.049713710445674951e+04
-1.049522289409405857e+04
-1.049576955907400770e+04
