-3.546008913017537068e-01 -4.820129368014275939e-01 7.520970392717687414e-01 3.648637066723591227e-01 3.110144192601499213e+00 1.721404987205060744e+00 -1.948109437171931246e-01 8.433778862946305077e-01 1.084491312586770700e-01 -1.923545117588114015e-02 -1.537663156809225162e+00 3.158666565644173918e+00 1.338953392261290898e-01 1.210526789454962823e-02 -2.138525337148641237e-01 2.604948647054055044e+00 1.130128393664094483e-01 -1.248924158256369710e+00 -1.870729516490064193e-01 -1.379782510430750120e-01 6.706187801540002269e-01 6.750765588115701377e-01 6.684935062825345664e-01 -8.773683842810213740e-01 3.493836087709308313e-01 1.091552590303433323e+00 3.229444407633626501e-01 -1.628261118832980525e+00 2.603024947670276923e+00 -2.728932897821769177e-01 -1.659827066540164875e-01 3.588288133368833233e-01 -1.091032199023993926e-01 9.979418095976267944e-01 -1.569492899700552169e+00 1.313688189956252694e+00 1.351906609977773233e-01 -1.110995272393952904e+00 -1.125828480740504789e+00 6.970574339409365550e-01 9.397680295156251029e-01 -3.213308164205948558e-01 -1.067590423079521234e+00 -6.602911729837808164e-01 8.724112973899181833e-01 5.272977767459292586e-01 -6.651258753645019617e-01 -1.182613865116491914e+00 6.769694049574362937e-01 -9.685448445156159547e-01 4.090902805564987088e-01 -3.992815220038231638e-01 -9.645030703492185609e-02 3.595950020783505452e-01 8.059729633127080684e-01 4.837803131131207524e-01 -2.621712753873230439e-01 -5.459758127568772323e-01 3.413221719253060060e-01 -7.225288387193495865e-01 -2.314147109546820305e-02 8.319107662042155571e-01 -8.609287506805475554e-02 4.341703634340683959e-01 7.205758287595560585e-01 -7.759666467819467117e-01 -2.118172484539734279e-01 8.362281626292884518e-01 2.742076377172038004e-01 4.516667204330085394e-01 -5.642486429099218270e-01 1.257747670078406821e-01 -3.899695005815216609e-02 2.386641420005412240e+00 -1.005851551356853613e-01 -5.210757071004574748e-01 6.071557266527158325e-02 -1.565200185865808225e-01 -2.252466344755552630e-01 -8.009500561807273572e-03 -4.184341836579753560e-01 -5.938327328798651550e+00 -3.084158052970597641e+00 7.019528143562168143e-01 -6.423448729319656270e-01 -1.277149214518377707e-01 1.167717921852853502e+00 -1.564212882252642711e-01 1.150668422582997286e+00 -1.731246141657543314e+00 5.849533252751450974e+00 2.133117278763399405e+00 6.343096613385654781e-01 -4.733128379310361789e-01 1.060048863292703869e+00 7.579761237557917086e-01 4.909968854606042710e-01 -8.691855913662780431e-01 -4.982942418693525610e+00 -9.576896469771112308e-02 -9.259226390028708620e-01 4.540532183854577575e-01 -7.853825407718834084e-01 6.527161888558928871e-01 3.055704682748044271e-02 -2.497657026437688499e-01 -1.256537194711015104e+00 -6.129108839644612505e-01 -6.071814376843086281e-02 4.737000460668246149e-02 -1.375879575834954294e-01 -2.220995527865261998e+00 -6.208422229902261780e-01 -2.248568552366075335e-01 2.478389179362000261e-01 2.751347775164422749e-01 4.986618581990672205e-01 -2.522869264017645399e-02 -1.279768654417058338e+00 -8.586970331382874633e-02 -9.188078823404949302e-01 -2.522513423340400518e+00 -6.278824176609827390e-01 -2.911290960497276981e-01 1.659832208746483129e-01 4.772322275870514718e-01 1.400219695223281713e+00 1.179634984996143166e+00 -4.534834619253599874e-01 -1.840324678969613492e+00 -3.850072714841000221e-01 7.015018428620781732e-01 5.100461887677530948e-01 1.764512102773647395e-01 5.598525707281747782e-02 2.701807245270671398e+00 1.053569169110671444e+00 -8.278813333329828605e-01 2.325737642588880938e-01 -3.475956636339634920e-01 1.464123435806067741e+00 -1.096482937721679901e-01 1.804950413262895181e-01 4.578743919007884355e-01 -2.922506112478082119e-01 -3.571673664753528543e-01 -4.165917311340310292e-01 9.839663212650126556e-02 -1.056020458862734657e+00 3.501328282315467610e-02 1.128130646509329482e+00 -1.413137431716165571e+00 2.742174079092091210e-01 7.043130870564413559e-01 -2.723394741616667059e-01 -4.730403009961517968e-01 -6.026820071555584191e-01 -1.717785388177418326e+00 -1.456536110383015004e+00 1.949204727117787028e-02 7.966126051510120654e-01 -1.216906724834414755e+00 -7.980627073328493415e-01 2.065434016536462913e-01 1.817283480897357251e+00 2.902189255313404881e-01 4.627162933703554692e-01 9.763764247388008188e-01 -4.663148093520919080e-01 2.317612956605537844e-01 -8.702340872346348011e-01 4.206067658275718796e-02 -9.614434575896683988e-02 -1.997052956912096777e-01 -1.437972231352339314e+00 9.294069980043350165e-01 1.071887764899951412e-01 -5.785861425673632930e-01 1.091566988481125433e+00 2.402130259657582131e-02 7.198266092989402676e-02 -5.522786150415506246e-01 -4.980087979966086320e-01 1.193850614363834856e-01 -1.462278926399595835e-01 -3.385736626480294609e-01 1.547829812921673320e-01 -1.874879276989151800e+00 1.805286713556129685e+00 6.516579227955308085e-01 -4.903068013726518681e-01 4.980581631772669216e-01
-9.843067353233020400e-01 1.795636334958066183e+00 -7.364328503841357509e-01 1.830388907920869335e-01 2.769597465389033730e-01 -9.883474810484355055e-02 4.995987681903108490e-01 -6.067422932647026368e-01 2.188981693987730459e+00 -6.398221065120743845e-01 -3.497060251071053283e-02 -6.075830439977891739e-01 7.192563386182105889e-01 -2.630288925571344194e+00 5.514250087926676480e-01 -1.176589770414285363e+00 1.778097811867313804e-01 1.403123499131379015e+00 3.693543954503677451e-01 -7.240339625087955922e-01 -1.050285356155631761e-01 -1.709625220970476756e+00 1.030484776505339539e+00 -1.292778436403044573e+00 1.614750485951565173e-01 1.888994633333630768e-01 -6.951779575314986914e-01 -1.350915192599552395e+00 -3.589152024030353716e-01 -5.019929794522379751e-01 -2.884916584289322627e-01 6.647561507301966710e-01 -1.123196699546659794e+00 1.074309744075998552e-01 -1.321891551696270151e+00 -1.616586253607295298e-01 2.257202316774956918e-01 3.475889787657493457e-01 1.501692909390184294e+00 6.191257545210869795e-01 -1.059983557272457938e-01 4.364956691313264803e-01 8.568648650269804490e-01 9.420974489779381233e-01 9.927435532301825960e-01 -1.442519998620484190e+00 7.602407514184907900e-01 -4.824243133069133216e-01 1.506091552675090650e+00 -9.855264666620670022e-01 1.154909714354555250e+00 -2.804554183942684076e-01 -1.287988985437927003e-01 -4.567271656711150429e-01 -9.567126277765825026e-02 -4.770357953056820755e-01 3.735951730012938010e-01 2.052438632728168511e+00 -2.208593554666130832e+00 2.689853672462519718e+00 1.586134107788713943e-01 -8.450660726290176727e-01 -5.726098703839191950e-01 -1.412085850524017694e+00 1.387295273862183265e-01 -1.160529117419490108e-01 -5.469692870176252608e-01 2.317133702976646781e+00 5.406490012314687510e-01 1.607618245787706179e+00 -3.250841128125203094e-01 9.210421709859144546e-01 3.977013220021261009e-01 7.702598262095958770e-01 -2.226534198290995858e-01 1.586432355755190982e-01 -1.679346881725463092e+00 1.219799730109243141e+00 -3.684833057000017065e-01 -5.201228562696261770e-01 -3.080409898784990386e+00 3.437529956962212641e+00 -1.455385798829550659e+00 1.606209281256417709e-01 -2.094006171724974941e+00 1.340817956272405187e+00 -1.498372072549650491e-01 1.984881354556037314e-01 -1.168638376783877747e-01 -6.752179694853308045e-02 -2.626597849875873525e-01 7.596118595857294375e-02 -1.737638932552791615e-01 -6.213029646763703617e-01 -2.960733274250343938e-01 8.217708495646240674e-02 4.707227086083715789e-02 -3.508959316492228364e-01 5.587238564412483344e-01 1.428126448914170288e+00 1.255510810329828253e+00 -1.472787539232229159e+00 -2.842200276400947967e-01 1.065257404072785130e+00 -3.310141051390971811e-02 -5.695070630912931753e-01 6.909855167199672188e-01 -2.192245966558759585e-01 2.266807958178048976e-01 -1.012870148761072286e+00 3.054007754662916088e-02 -3.269394208522609646e-01 -2.847861845557695393e-01 -2.994918661856207920e-01 1.812053857071370011e+00 -8.947721815662272871e-01 -6.935756460426317771e-01 -3.827626984260434351e-01 -1.040441630599989953e+00 1.542301941129208820e-01 8.043732229270005307e-01 3.145153361659599467e-01 -5.945254394930400421e-01 1.039779828646789778e-01 2.051901272167877988e+00 1.662935530259741279e+00 -2.466330705544949875e-01 -4.689157373080255486e-01 4.964517379233451266e-01 -2.856071377945295087e+00 3.312578457185975100e-01 -2.004458762452103304e+00 7.859780082635738907e-01 8.325746250399432280e-02 -7.744728358464017526e-02 -6.360801229740496998e-01 1.470671007111504962e-03 2.563641817917600707e-01 4.710219850161124766e-01 5.220964350546939414e-01 -3.504372468456062317e-01 -1.417733535723704863e+00 6.834845803630666961e-01 -7.863467044566155861e-01 -5.529620142612887146e-02 5.318357738220688136e-01 -1.621533056085761315e-01 5.410017565849227772e-01 3.889102060798959037e-01 2.839279503211998845e-01 -1.858084831152696514e-01 -4.834676669689515482e-01 7.706804586864550721e-01 1.299600087305261831e-01 5.575087530881698283e-01 2.183010564010604559e-01 4.344819811369738383e-01 3.580919351714320631e-01 -4.222779828811076830e-01 -2.443854121726472817e-01 -1.997706017114555255e-01 6.747212323549567348e-01 -4.074175208410672488e-01 -1.997268929577476482e-01 3.324914610144228400e-01 7.519006069903994005e-01 -1.830063920481535877e+00 -8.665065018743023373e-01 -1.604080407840529077e+00 -1.595125255536736342e+00 -1.309755944784440629e-01 2.668625102117559433e-01 2.500402964611805334e-01 1.374290634082515616e-01 6.357001139271072077e-02 7.438648811763673985e-01 7.577421533682967558e-01 -5.101582888654979803e-02 8.458795696686156607e-01 2.460854255815670896e-02 1.553301120444633421e+00 -4.545998349171219144e-01 -9.698921025710817434e-02 -1.382119643202541104e+00 1.234748123877331238e+00 -5.384167694685768613e-01 8.412803803372852496e-01 2.702856769580291862e-01 -1.430464095906592847e-01 4.035726931766712156e-01 6.274581856397006829e-01 -1.039819937856074628e+00
4.991693939627102339e-02 -4.250599164994549595e-01 1.905578248711024547e-01 3.437390088950347256e-01 6.856813309023603864e-01 -1.411309377369913409e-01 4.341276831216243082e-01 -1.171746840503454568e+00 -1.044321425267352499e+00 -2.735293807037842209e-02 -1.245156463686752257e+00 -2.235061519029083232e+00 2.954660328588110674e-01 -4.567878437056741570e-01 -4.940786097073242011e-01 9.209454975071252880e-01 3.330478991601554473e+00 7.267423625767873707e-01 -5.316105451853153641e-01 9.106693124000915518e-02 4.633441567618530876e-01 -1.414659010565830988e+00 6.635492749072279262e-01 -9.227097884950272721e-01 -4.612528214520899006e-01 1.287889226635346551e+00 1.544523374258831572e-01 -1.670738828348174165e-01 5.328631866445193710e-01 2.621465927969938714e-01 -1.097356084354573325e+00 7.773668695624937897e-01 -1.386894181769334766e+00 6.146407221700287415e-01 1.658998657102243035e+00 -1.433146784942991747e+00 2.005342193497633985e-01 -2.298874756780662151e-02 -2.769438056993158565e-02 1.132046436620921526e+00 9.035776956661494275e-01 -7.854056807003169105e-01 1.631566014833926603e+00 1.072454436036258008e+00 -4.543890044580604637e-01 8.054412591793679299e-01 -8.096851220540849381e-01 1.048799258529564543e-01 -2.325732500382562407e-01 -2.051359797842531862e-01 4.462447780907065620e-01 3.197830123187047624e-01 1.819276600066435989e+00 2.228719635976388336e+00 -1.485898108462059497e+00 -3.873725321244533948e+00 -1.053231840376173345e+00 -2.642374138861251776e-02 -8.658945793223923326e-01 1.146146366346445095e-01 -3.628268787495728120e-01 -3.167907624619278883e-02 -8.675380284618077198e-01 -3.837474309360499464e-02 -1.245591494341303368e-01 7.300570287697385474e-01 1.695671844125032468e+00 3.078124702297016773e-03 -8.334847955583304380e-01 6.460020100657337672e-01 -7.064512164437034558e-01 -2.613886315856364662e-01 -7.231176213428261446e-02 2.194678230147444065e-01 1.045254735714172822e+00 1.805809161718096856e-01 1.459517561606523128e-01 -2.860897338575274507e-01 -1.200653753323305262e-02 -1.911414652882603427e-01 -1.850680054053953361e-01 5.478881992867539186e-01 -8.299829530553831658e-01 -7.408916574829691459e-01 9.214196089296975423e-01 -5.740383752992185284e-01 -6.251112826759044339e-01 3.985472149415311138e-01 1.283287980421488506e+00 3.136025945444134710e-02 1.298374699539546206e+00 2.669679254412867242e-01 -1.007902777457331922e+00 -1.658803767482769087e-01 -4.146212376727543836e-01 4.411694204542763176e-01 -1.053178361430459953e+00 -1.692793237027896192e+00 -2.930155658597588975e+00 -1.620380687649769502e+00 9.547174517249767955e-01 -7.079414278348254985e-01 -8.679231797150689376e-01 -2.864656291394150900e-01 2.052809385803737285e+00 -2.879327006021035334e-02 -1.560042552928280965e-02 3.382437386906298471e+00 -4.544507109338833950e-01 -7.114324717045038549e-01 -4.919034564345683980e-03 1.169181907991750924e+00 -8.402879345178008164e-01 6.445359670443091549e-01 6.083224932663997553e-01 4.762135565153424732e-01 2.589851643523360392e-01 1.367941037720343367e+00 -1.961576875520270602e-01 4.063515414712273732e-01 -1.559467654261864622e+00 -1.450416884863914957e+00 2.078908653973647880e+00 2.739453851949566476e-01 4.642805525324649740e-01 1.298659063548963377e-01 -1.407450151527825266e+00 -8.826185769322829333e-02 -1.720623371844638150e-01 -8.172925020817800590e-01 3.034081705178450772e-01 5.669441874621170552e-01 -1.580223655846147546e+00 3.709268821425869556e-01 1.264423796541808587e+00 3.121164969183462534e-01 -7.663928870580299924e-01 1.090820340123668464e+00 1.918783434537116861e-01 -6.369944072574917904e-01 -1.019722138680569046e+00 1.451523487663671341e+00 1.808627090780674240e-01 8.334025202572331592e-01 -8.638186706315849339e-02 1.010758758846666661e+00 1.054933910667620461e-01 -9.873684049653795869e-01 -1.513049472044749821e+00 4.860701375867806373e-01 3.765072044395009754e-02 1.590432992271039736e-01 -6.359844779365242395e-01 -1.322881426412595207e+00 8.923399179775428625e-01 2.695354290561495780e-01 1.011793370757963162e+00 5.192599940493698024e-02 -1.020785546947249545e+00 4.500129868809559786e-01 4.704640556305474397e-01 -6.265757830354337088e-01 -1.753908873344752206e-01 -7.793466189951439027e-01 -3.303240210511448338e-01 -1.140700255634445881e+00 -4.134051058784122268e-01 -3.592659008739619853e-01 9.431114920639604993e-02 -1.867484270082413911e+00 4.492113169158906127e-01 1.237528000613150825e+00 -9.777082561753108747e-01 -3.623049448082378277e-01 -4.588020459206586521e-01 6.776018963346206458e-01 7.155668055846354791e-01 -2.026414954991140882e-01 1.531345442126227807e+00 -4.945326665252541276e-01 -3.093427908301086271e-01 1.277138930105740644e-01 -3.996538177412877757e-01 -8.097699684583414825e-01 2.820942395479972831e-01 -4.902600072951529553e-01 9.989903054659834414e-01 -2.111446478675042537e-01 1.708014167730868449e+00 -6.628339940083145532e-01 1.699859656950877262e+00 9.569897926971534519e-01
4.087755775298021477e-01 -1.986305745706281822e+00 -1.438352240399281667e+00 -1.637509891117563954e-01 6.422019195963092342e-01 3.441616982544212777e-01 -1.069195305671547302e+00 -4.451859978097127413e-01 2.306135552102485664e-01 1.337578880512336754e+00 1.982469659792627237e-01 1.633540107839626387e-01 4.281287852303785058e-01 -1.427394198734405650e+00 9.238539294009093794e-01 -3.180722002765159484e-01 3.342290125294681835e-01 1.295200415579091935e+00 -1.425148597235085246e+00 -8.113383413855058679e-01 2.235280062797622591e+00 -2.047832244307992017e-02 1.247658661281369208e-01 7.306201003616222267e-02 -2.928543062696085109e-01 -5.253895039811073281e-02 6.994845553233024482e-01 -1.161388380095323747e+00 -1.772187874145379372e+00 1.960383883654361892e-01 -6.795266241596619183e-01 -6.031484052686528763e-01 -9.525731516901322915e-02 6.302462899056300305e-01 -1.725089378032317322e+00 5.815321125672729963e-01 3.818571558933429588e-01 2.874858428730196480e-01 -1.172653411477418528e+00 1.514628129384551602e+00 8.499064314366890915e-01 1.211552659615517946e+00 -3.556478445082148498e-01 2.277741831473228284e+00 1.064389913866842008e+00 -4.928146553942193142e-01 6.640953772182602022e-02 -4.561656367411269786e-01 7.706922857609878053e-01 -2.443589298101065843e+00 -4.039599013124596794e-01 2.070097997667407486e-01 9.063740274621886472e-01 -1.018669529047157463e+00 -1.267617106665641424e+00 2.071470966754465903e-01 -9.895857243299476247e-01 1.645068934405864158e-01 -4.456431399514337310e-01 -1.068895515043174482e+00 7.949331605673666257e-01 7.601620756618167329e-02 3.883013688517769624e-01 1.603998132539431909e+00 9.500030769721101720e-01 -1.993720807217662372e-01 1.639000102508685774e+00 1.475871320361476391e+00 -9.741940723771987942e-01 -9.427618220342975919e-02 7.417344650985830956e-01 -6.153935411750675877e-02 -9.656965764357592352e-01 1.491513911982571550e+00 2.562417972813779699e-01 -3.676687802191399568e-01 5.232554883589000255e-02 -7.223756009710562420e-01 4.310125345338334801e-01 9.777997874477813989e-01 -3.289397391101853696e-01 -2.433662268803063466e-01 -4.921399979252227830e-01 -5.847989562414616094e-01 2.644065924740061635e-01 2.102771062394980017e+00 1.679825106913090060e+00 -2.890912396856776811e-01 -3.902595210178891327e-01 -2.740883385306129294e-01 8.337763586565933860e-01 -1.334808773968522155e+00 -1.697143029352776056e+00 -1.562865624197176950e-01 1.281795712147839383e+00 -3.413807930773377769e-02 -2.377799910461260158e+00 9.264132054856625276e-01 5.438808779026911289e-01 -7.443816729113837960e-01 -1.824768476414670548e+00 -1.421965057303257618e+00 3.358477790785546202e-01 -8.268153539631430127e-03 -3.569663062082966687e-01 8.885861073649855557e-01 -1.722340868755040943e-01 -3.450914091568190734e-01 2.288965725204774315e-01 9.695218637161447106e-02 -4.082464444996211084e-01 -1.249733027310280908e+00 -2.196375158232572733e-01 -2.014202214984532873e-03 1.085447762962024942e+00 -9.614681401799975990e-01 -3.267651000580614196e-01 2.866507485668836064e-01 7.004199226526506769e-03 2.859884323930515504e-01 1.480269963646382747e+00 -1.719337820264995154e+00 -2.446945101944566048e+00 2.215159637914315000e-02 9.097704547356052496e-01 1.693133136865553612e-01 -2.057280019977103969e+00 -7.852236465966395684e-01 1.314303197831953929e+00 -7.150505280702508237e-01 2.195707185631790459e+00 1.877722917083321619e+00 7.127977274820845865e-01 -5.047666855404755459e-01 -3.789806056787339283e-01 3.644230195908575165e-02 -2.529451288105417396e-03 -3.507246961788143547e-01 -7.670006958448850609e-01 1.171144688143549661e+00 1.654645779453572052e+00 7.354332054758053183e-02 -9.832633816612638133e-01 2.244367369803802401e-02 5.631651800385987228e-01 2.690145235560782444e-01 3.433199190800711453e-01 -8.417421504646929176e-01 2.664516479269021243e-01 1.277267485263705038e-01 9.352649994424518942e-01 1.047049365719354475e+00 8.976585019728413606e-01 -7.331186984118162053e-01 1.195827792693325620e+00 -4.711685378961917858e-01 -5.104668212446122205e-02 -4.565276480659544722e-01 -1.757302729515009820e-01 4.571015182911070118e-01 -1.007166927733144313e+00 -5.280655081492919845e-01 -6.466062193081660858e-01 8.203408019874293133e-01 6.530072377335240930e-01 2.267137059382437481e-01 -1.319957567899855189e+00 -1.474080804121349786e+00 1.103254709222607044e+00 -1.051637756417416192e-01 -3.097479966880121172e-01 -5.262965891757034331e-01 4.171584022703376804e-01 1.465945319504737554e-01 1.880967649270340603e-01 -8.540021987694315642e-02 8.226141714008698702e-02 1.061379666287949997e+00 -1.999516073738692445e-01 5.722602003542565097e-01 -4.429136568375359184e-01 8.054350885317854702e-01 1.299049871229174535e-01 2.499544216156603937e-01 -5.339569339284796490e-01 7.237089750694618295e-02 7.639570239249225680e-02 -1.393944146632096759e-01 -3.904734368007417578e-01 -9.071607850289300501e-01 -2.148156689583325674e-01 6.711386572128078543e-01
-3.637288217378503163e-01 2.034894453210465692e-01 5.654267223775064771e-02 4.684704222408371532e-02 -4.120840730751711423e-01 1.314426096562967716e+00 1.483532179334884793e+00 7.613797501180543659e-01 1.405864295099177763e+00 -5.685711815413130310e-01 1.174961747893825459e+00 3.683922886481629799e-01 -6.265948091988123858e-01 2.407534718498400839e-01 1.114374216165886500e+00 8.399506057833024952e-01 7.683253281925491729e-01 9.054237477345165042e-01 1.273507504003565272e+00 1.151739029938523728e+00 -3.698701587441204919e-01 -7.339028848753984535e-01 -3.109780124394144196e-01 -4.435219798450228956e-01 -2.460185768994256061e-01 3.226785886966924283e-02 2.524242233104704303e-01 2.954659814367478710e+00 1.588099973264303744e+00 -1.895424448114372940e+00 1.545289048779666885e+00 1.087718047051674519e+00 -7.069458966915500575e-01 -2.031310335406421030e-01 1.063953340550395366e-01 5.664860168791323591e-01 1.073142463241682915e-01 -8.358553526711920423e-02 5.325320285576033708e-02 -6.560221132981025605e-01 -8.267047965272936727e-01 1.205451431818532620e-01 8.484100493979847002e-01 -8.109691309718324304e-01 -1.175122698951596850e-01 -5.994362465272758955e-01 -1.186384130789268770e-01 2.325670793906739198e-01 9.933421060456643081e-01 2.397800521937344387e-01 6.055251330290967182e-01 -3.159120622462103789e+00 -1.732317263233702054e+00 1.658522488797143035e+00 -9.896901111182145883e-01 -5.649587816025165160e-02 -2.075743111763935556e+00 1.918613741728603939e-01 -2.258508437179874706e-01 -8.651659286870506949e-02 -4.123725508496429715e-01 -9.449112642754604885e-02 -2.023766718737076697e-01 -2.887626527019209743e-01 1.703052452854078302e-01 3.149796773965269359e-01 -4.317175310201096794e-01 2.479561602402634291e-01 9.098619860080758848e-02 -8.714137093641152743e-02 -3.085169524953459974e-01 1.348039670826207126e-01 -8.608819566030486703e-01 -5.746235583782719480e-01 -6.690180113270289830e-01 7.550198693432448593e-02 8.374190976126697494e-01 3.869355988535643776e-01 -1.367333228933488298e-01 6.225448075023054528e-01 -1.118662302014943100e+00 -5.199048267217187824e-01 -1.423809052489097393e+00 6.138179691590572862e-01 3.075527888106138197e-01 7.188084524478630111e-02 -1.474152280789177705e-01 2.831766739780566255e-01 -4.554128177360881047e-01 -1.994204174611607927e-01 4.992362426448516688e-01 1.426584301239230523e+00 2.057336070025975960e+00 -2.361146875298565373e-01 4.883615047223361927e-01 -6.347292653741609669e-01 -3.235136830028285115e-01 8.151271190010294099e-01 4.204314165921085866e-01 1.636969959454113721e-01 -4.320923978607335569e-01 3.862234032784422344e-01 5.667354138855830170e-01 -9.605903655614176362e-01 -1.532736408935401640e+00 5.190064832778642501e-01 -4.005876424087403964e-01 6.956458983064887081e-01 -1.049256914891917303e-01 -5.359834774386287304e-01 7.444418367253110569e-01 4.071151591095352740e-01 -3.344439567535845148e-01 -9.900768050333712544e-01 -1.487244338076261663e+00 -4.377889340204472735e-01 7.345986253903011853e-01 6.497871881368344482e-01 1.217456426689869975e+00 1.103287105122413791e+00 3.264025745126020728e-01 -8.466539859401926715e-02 -1.840775650463752244e+00 7.673560223014984638e-01 6.032666760139799855e-01 -9.567537654271311698e-02 -1.729626346667193282e+00 -5.255849078212129766e-02 -1.335004177808628012e-01 5.430750941725709380e-01 -2.156538485882597833e-01 5.925405478540712867e-01 1.781691185642731767e+00 4.456595950116531424e-01 -6.409503065783690723e-02 3.386513099634398949e-01 4.381067223709350644e-01 1.179467863290789981e-01 1.556345306585227850e-01 4.066605880709735499e-01 -7.399712025519449288e-01 8.333464702083608344e-01 -1.331677170320512138e+00 -1.388870331657561907e+00 4.959915104578328515e-01 -1.926501886221292925e-01 1.370984195419673979e+00 -7.106040622665819040e-01 -4.423001916237302988e-01 -2.659065740571335268e-01 -3.833005732069660332e-01 -7.761234840746631392e-01 -1.875774020888582916e+00 -2.173024399339938684e-01 3.039954104794259093e-01 9.380042527483549719e-01 8.277152400688929379e-02 3.906714117440067136e-01 5.217601347614593266e-01 1.033562386987004755e+00 -5.967381308719215127e-01 -4.063908279275012525e+00 -9.571918814054735103e-01 1.902564915808341584e-01 4.832825475414829208e-01 -4.731344033717817255e-02 -1.559729392563480088e+00 2.061966112595218004e+00 -2.334821864271269476e+00 2.764969479702319433e-01 -1.600454123944672347e+00 -2.940041036024411136e-01 -5.370062622753926096e-01 7.480367531626245549e-03 -6.631106447082536492e-01 5.670866265771413728e-01 7.463897044787860535e-01 2.912545658839008414e-02 -2.994615271683412350e-02 -1.085308923391423569e-01 -9.935524222840937947e-01 -6.118968408784388607e-02 -1.689088277375365266e+00 9.682522529760893004e-01 -4.717583489609319392e-01 5.145821289613651262e-01 -6.874564205235314529e-02 7.455376408917986364e-01 1.476599970996818334e-01 3.219303976773402742e-01 -7.324764368426266437e-01 1.215809378006031727e+00
6.410161268192466899e-01 -1.060749746013925077e-01 3.013636292855809695e-01 5.731945392423408725e-01 4.854422741952830744e-01 -4.254805489763140991e-01 3.242104519589949496e-01 4.554297870169393692e-02 -2.853250877779558436e-01 1.721560281835881501e+00 7.647257837695491389e-01 -1.180341009923683293e+00 1.798075283414964781e-02 -7.553546269745839981e-01 4.675376260146483220e-01 -1.023032176887833433e+00 -3.742567692662412959e+00 -3.315941460118320694e-01 -1.663683721279093641e-01 -3.387783224595086184e-01 3.299810358896961837e-01 6.680543618629286584e-01 7.765590289498461862e-01 1.303100387146313377e+00 -4.564865104154058328e-01 -9.554630716411696700e-02 -9.909905750961814364e-02 -2.620010683581783240e-01 8.659382880761000711e-01 5.868157295596054812e-01 1.297019728174602315e+00 -7.611401233036089176e-01 1.897110063345601061e+00 -6.003659574296736912e-01 6.023313086846319164e-01 7.057986704618766927e-02 7.023173967842034904e-02 -5.923662270598717416e-01 -1.283208790444182679e+00 -1.020027585735892250e+00 3.222445864834050377e-01 -3.213056196096338857e-01 -5.975557416765743257e-01 3.201928461622949307e-01 1.980659603168490046e-01 -6.712193898520094626e-01 2.073029055268993739e-02 -1.003937622165081311e+00 9.520198502902539328e-01 5.551628785656374798e-02 -7.160090353280326170e-01 1.496176350451620431e-02 8.040353799718702801e-03 -1.041255641860219794e-01 -5.344089338638820241e-02 -5.742970282770427232e-02 1.211925469573614522e-01 2.207698296546067585e-01 1.176536805689204074e-01 6.312726742868170204e-02 4.611839158874210809e-01 -5.826613410748313626e-01 -2.878134014155126486e-01 -2.473785876265614636e+00 5.096594948525964841e-02 -1.438435029921010688e+00 6.061488826555394560e-01 -1.649476833662143482e+00 3.381345182284233863e-01 -9.597722405361326647e-02 -2.309879078302405908e-01 9.960505061136561145e-02 -3.545962633160669730e-01 7.455345555680075176e-01 2.977383738309878902e-01 1.003850718878297466e+00 -2.654643443137363334e-01 -1.931090276919354753e+00 6.924957827157317281e-02 1.677387701118087382e-01 -4.568017276627342471e-01 -3.456987037230423998e-01 1.851456527208057423e-01 4.561908335520879765e-02 3.084753006241656159e-01 1.140382981504590054e+00 -4.771998316872444468e-01 1.027117659807938788e+00 -1.132982318170901559e+00 -5.431691965482007278e-01 5.291381723873460619e-01 1.102910695619894632e+00 -6.297927473083321237e-01 -2.985822098878654907e-01 6.957939938484635212e-01 -4.603369945067524172e-01 -7.639415973059668352e-02 -4.987832142681854486e-01 -6.732387342733126001e-01 2.817481176406941401e+00 -2.236227257201503171e+00 1.417926882681283418e+00 -7.211368434689123808e-01 1.947085623893903605e+00 -2.125068183212938944e-01 -7.027904797655122604e-02 -1.540039370349037193e-02 5.675566242346589130e-01 -3.842307983299956403e-02 -8.114401570706135380e-03 3.387161017630538895e-01 -7.595311269465279125e-01 -1.154699398116125542e+00 5.035742078951986889e-01 5.578903047970078521e-01 -5.919718198352372784e-01 1.607668639409628453e+00 -8.052258007346196900e-01 8.383683488990779642e-01 -3.970996838628532144e-01 -5.049451200997299161e-01 -5.343806517291299629e-01 -8.571482005951336358e-01 -4.247601258710821948e-01 -1.449186869112512599e-01 -9.031236388482194455e-01 2.415556560355372751e-01 6.560251986218937903e-01 -1.873305761855668852e-03 -6.629918597422947979e-01 -2.836415294292554679e-01 1.195322313812210213e+00 2.366515338695154569e-01 7.018360862727852645e-01 -6.682065711699582966e-01 -7.416172227945195816e-01 -1.879502120469547788e-01 -8.957255466176905490e-01 -3.575797714221022883e-01 8.306205866388860493e-02 -2.024064966703553736e-01 9.744676377533467715e-01 7.705534461903863486e-01 -1.386364534518522151e-01 1.551923009151256194e-01 -3.574352754245503916e-01 6.014679322437436193e-01 -6.992063619614677372e-02 -1.815412232018029259e+00 2.352541393024436100e+00 1.168426517883552673e+00 2.110973395693733767e-01 2.406786013258416901e+00 -3.418538760586463648e-03 -5.443092236890281210e-01 -6.912842789070761107e-01 -1.406452049281390559e+00 -5.923543999853390085e-01 -5.208653908620278772e-01 3.778693748932905883e-01 -1.621918721559654220e-01 3.133953636297749368e-01 3.192919316152811882e-01 -3.298262554795071411e-02 -1.228663351140565352e-01 1.706004079280938612e-01 1.013636851723171278e-01 3.322436066698676860e-01 1.224616434767849225e-02 3.374672141144623883e+00 -2.287671946095022335e+00 4.920474382114884415e-01 2.552560877521710125e+00 1.473506933896197468e+00 -2.914386568701057278e-01 -9.640747245628816797e-01 -1.531711567216110126e+00 -2.297695134651181803e+00 2.458187507618859513e+00 1.358042804777724655e+00 3.276670430463389239e-01 -2.047974683423016362e+00 -5.533919027095213217e-01 2.192816751460121005e-01 7.845978400876692238e-02 -1.429019135931073985e-02 -6.694041910215536850e-01 2.304582605794276706e-01 1.596372754789621817e+00 -2.566603728757098080e-01 6.675098022137918204e-03 4.608414449466042284e-01