2.159850000000000048e+00 1.143060000000000009e+01 1.174349999999999916e+01 8.523619999999999308e+00 6.408619999999999983e+00 1.033399999999999963e+01 1.896579999999999933e+00 6.874030000000000307e+00 6.531399999999999650e+00 4.591219999999999857e+00 1.484830000000000094e+00 1.671440000000000037e+00 8.423339999999999606e+00 6.519760000000000000e-01 1.136989999999999945e+01 1.087679999999999936e+01 5.398649999999999949e+00 2.913499999999999979e+00 1.125329999999999941e+00 3.820939999999999781e+00 1.185420000000000051e+01 8.851119999999999877e+00 3.044470000000000010e+00 9.732049999999999201e+00 1.872319999999999984e+00 8.202550000000000452e+00 1.149039999999999928e+01 4.901980000000000004e+00 8.165079999999999671e+00 1.820889999999999898e+00 3.435560000000000169e+00 1.041050000000000075e+01 4.987969999999999793e+00 4.760449999999999626e+00 5.401659999999999684e+00 5.925320000000000142e+00 6.438600000000000101e+00 1.049360000000000070e+01 2.287069999999999936e+00 1.100009999999999977e+01 9.010180000000000078e+00 6.120289999999999786e+00 6.857020000000000337e+00 6.497679999999999900e+00 4.492539999999999978e+00 9.176280000000000214e+00 7.382500000000000284e+00 3.526759999999999895e+00 4.482240000000000002e+00 2.561209999999999987e+00 9.231690000000000396e+00 2.853489999999999860e+00 5.042049999999999699e+00 8.645839999999999748e+00 1.101270000000000060e+01 5.903539999999999566e+00 1.152089999999999925e+01 2.436280000000000001e+00 2.168550000000000200e+00 1.086960000000000015e+01 8.074920000000000542e+00 4.294810000000000016e+00 3.695770000000000000e+00 9.299300000000000566e+00 5.454819999999999780e+00 8.271530000000000271e+00 1.042469999999999963e+01 3.551449999999999996e+00 1.149300000000000033e+01 1.086200000000000010e+01 4.724400000000000266e-01 1.010769999999999946e+01 2.901930000000000121e+00 9.740020000000000344e-01 6.534679999999999822e+00 7.082010000000000360e+00 3.198640000000000150e+00 7.139649999999999608e+00 1.765560000000000018e+00 9.559689999999999799e+00 7.111349999999999838e+00 3.461310000000000109e+00 4.498870000000000147e+00 1.103819999999999979e+01 9.979639999999999844e+00 8.406549999999999301e+00 8.357879999999999754e+00 4.729749999999999788e-01 1.202009999999999934e+01 7.536889999999999645e+00 6.652260000000000062e+00 4.608640000000000292e+00 1.001140000000000008e+01 1.080659999999999954e-01 1.040820000000000078e+01 1.026499999999999968e+00 5.694119999999999848e+00 1.135979999999999990e+01 1.130690000000000062e+01 8.984379999999999589e-01 1.187160000000000082e+01 4.217130000000000045e+00 2.030209999999999848e+00 5.671129999999999782e+00 1.500609999999999999e+00 1.090700000000000003e+00 2.870200000000000085e+00 6.497869999999999813e+00 1.065549999999999997e+01 2.843319999999999848e+00 3.053690000000000015e+00 4.576979999999999826e+00 4.233050000000000423e+00 1.701999999999999957e+00 1.140900000000000070e+01 6.286940000000000417e+00 5.369110000000000049e+00 6.914229999999999876e+00 1.472699999999999898e+00 2.698109999999999786e+00 4.143080000000000318e+00 7.509089999999999598e+00 4.769580000000000375e+00 2.786379999999999857e+00 1.035130000000000017e+01 2.396450000000000191e+00 6.096309999999999896e+00 1.087209999999999965e+01 4.918829999999999814e+00 1.862600000000000089e-01 8.296409999999999840e+00 2.928900000000000059e+00 9.069259999999999877e+00 1.058970000000000056e+01 3.127069999999999794e+00 8.775190000000000268e+00 9.813140000000000640e+00 2.452400000000000135e-01 8.652279999999999305e+00 3.976609999999999867e-01 5.662259999999999849e+00 8.465960000000000818e+00 5.195420000000000371e+00 1.262410000000000032e+00 4.905569999999999986e+00 2.833239999999999981e+00 5.314960000000000129e+00 1.135399999999999920e+01 2.743970000000000020e+00 9.101649999999999352e+00 6.209719999999999906e+00 2.329759999999999831e+00 1.132820000000000071e+01 4.218779999999999752e+00 9.145749999999999602e+00 1.085079999999999956e+01 9.568559999999999732e+00 3.741229999999999833e+00 5.957460000000000200e+00 6.890909999999999869e+00 6.371540000000000425e+00 7.616220000000000212e+00 1.652940000000000076e+00 2.654799999999999827e+00 2.548859999999999904e+00 1.065620000000000012e+01 5.613420000000000076e-01 1.405569999999999986e+00 4.824010000000000353e+00 8.233980000000000743e+00 8.121869999999999479e+00 4.254400000000000404e+00 1.176529999999999987e+01 8.630779999999999674e+00 7.778690000000000104e+00 9.650610000000000355e+00 9.357060000000000599e+00 1.046999999999999931e+00 6.873920000000000030e+00 9.528959999999999653e+00 7.705560000000000187e+00 8.598169999999999646e+00 5.655199999999999783e+00 7.878120000000000012e+00 2.479689999999999950e-01 8.261490000000000222e+00 1.571319999999999939e-01 9.902699999999999392e+00 9.767709999999999226e+00 5.342259999999999565e+00 7.003540000000000099e+00 1.141249999999999964e+01
1.160479999999999912e+01 2.313660000000000050e+00 1.035420000000000051e+01 -1.387009999999999910e-01 6.487910000000000288e+00 5.070890000000000342e+00 2.336129999999999818e+00 9.313269999999999271e+00 5.667749999999999844e+00 3.131409999999999805e+00 6.739069999999999894e+00 1.098550000000000004e+01 6.823369999999999713e+00 2.749220000000000219e+00 4.786620000000000097e+00 5.092419999999999725e+00 7.618820000000000370e+00 9.454300000000000204e-02 2.977960000000000051e-01 5.999500000000000277e+00 1.136490000000000045e+01 9.816950000000000287e+00 9.647100000000000009e+00 3.359700000000000131e+00 8.040580000000000283e+00 7.544439999999999813e+00 8.080349999999999255e+00 8.253449999999999953e-01 6.730749999999999567e+00 7.434179999999999566e+00 2.124229999999999841e+00 9.953989999999999227e+00 3.132919999999999927e+00 1.146059999999999945e+01 3.888490000000000002e+00 7.180489999999999817e+00 7.397800000000000153e+00 4.255309999999999704e+00 7.444329999999999892e+00 5.564350000000000129e+00 3.895299999999999874e-01 1.165670000000000073e+01 8.747609999999999886e+00 7.356290000000000440e+00 2.046809999999999796e+00 1.017670000000000030e+01 4.348720000000000141e+00 1.157830000000000048e+01 8.210570000000000590e+00 8.157289999999999708e+00 4.484029999999999738e+00 4.576430000000000220e+00 1.629299999999999971e+00 4.685979999999999812e+00 1.183389999999999986e+01 9.170790000000000219e+00 5.214940000000000353e+00 7.260270000000000223e+00 1.814219999999999944e+00 9.873960000000000292e+00 6.014890000000000292e+00 1.133549999999999969e+01 4.905730000000000146e+00 8.671260000000000190e+00 4.417880000000000251e+00 9.547729999999999606e+00 1.991679999999999895e+00 1.985389999999999988e+00 8.048429999999999751e+00 2.413419999999999899e+00 5.304789999999999672e+00 1.219470000000000054e+00 1.322899999999999965e+00 1.502410000000000023e+00 3.662430000000000074e+00 4.751240000000000130e+00 9.287810000000000343e+00 3.456220000000000070e+00 6.625919999999999810e+00 1.010660000000000025e+01 4.362789999999999724e-01 3.527200000000000113e+00 4.966750000000000220e+00 7.724910000000000387e+00 9.928900000000000503e+00 9.071839999999999904e+00 7.009310000000000151e+00 1.573430000000000106e+00 4.159259999999999735e+00 5.378999999999999559e+00 4.756879999999999775e+00 4.288050000000000139e+00 5.317969999999999864e+00 1.122949999999999982e+01 9.067090000000000316e+00 -1.705100000000000018e-02 5.274700000000000166e+00 3.432069999999999954e+00 2.708709999999999951e+00 -1.798869999999999914e-01 7.497729999999999784e+00 2.420279999999999987e+00 9.635960000000000747e+00 4.174730000000000274e+00 2.891280000000000072e+00 3.645830000000000126e+00 3.942539999999999933e-01 2.243310000000000137e+00 1.056150000000000055e+01 6.668779999999999930e+00 8.909739999999999327e+00 7.520459999999999923e+00 4.479009999999999714e+00 8.119400000000000228e-02 6.216789999999999816e-01 3.615930000000000089e+00 2.495140000000000136e+00 5.159019999999999939e+00 9.640689999999999316e+00 6.955219999999999736e+00 3.632820000000000160e+00 9.877039999999999154e+00 1.131780000000000008e+01 2.169179999999999886e+00 2.002029999999999976e+00 1.116649999999999920e+01 9.321580000000000865e+00 5.306689999999999685e+00 5.644540000000000113e+00 1.006490000000000107e+00 4.445850000000000080e+00 9.315749999999999531e+00 5.904650000000000176e+00 6.602149999999999963e+00 5.863710000000000200e+00 7.992519999999999847e+00 1.130829999999999913e+01 7.128589999999999982e+00 1.166419999999999924e+01 1.070380000000000109e+00 6.149359999999999715e+00 2.715240000000000098e+00 6.492619999999999614e+00 3.395519999999999872e+00 7.423720000000000319e+00 1.112749999999999950e+01 2.845540000000000180e+00 4.517929999999999779e+00 3.915259999999999962e+00 8.705599999999999450e-02 5.660280000000000200e+00 6.486329999999999707e+00 9.514549999999999841e+00 1.064600000000000080e+01 2.379229999999999956e-01 8.799939999999999429e+00 9.355320000000000746e+00 1.246860000000000079e+00 1.185769999999999946e+01 9.063629999999999853e+00 2.403350000000000097e+00 6.351259999999999906e+00 5.138819999999999943e+00 3.526029999999999998e+00 9.354250000000000398e+00 1.146020000000000039e+01 1.123760000000000048e+01 1.699070000000000080e+00 2.927680000000000060e+00 1.206370000000000076e+01 6.107639999999999958e+00 2.325540000000000163e+00 8.603730000000000544e+00 8.514390000000000569e+00 9.285379999999999967e+00 1.030640000000000001e+01 1.066910000000000025e+01 5.937759999999999927e+00 1.068640000000000079e+01 9.628859999999999530e+00 4.848760000000000403e+00 1.375439999999999996e+00 7.539679999999999715e+00 5.917130000000000223e+00 6.615660000000000096e+00 2.475870000000000015e+00 7.710139999999999771e-01 1.105560000000000009e+01 1.074789999999999957e+01 8.148889999999999745e+00 7.405179999999999652e+00 1.092469999999999963e+01
1.133259999999999934e+01 3.531569999999999876e+00 8.381949999999999790e+00 2.470509999999999984e+00 2.921959999999999891e+00 5.077210000000000001e+00 5.032519999999999882e+00 6.733780000000000321e+00 1.181569999999999965e+01 4.567520000000000024e+00 3.724800000000000111e+00 3.510429999999999939e+00 1.031630000000000003e+01 2.913839999999999764e-01 3.899789999999999868e+00 6.834749999999999659e+00 4.964509999999999756e+00 1.052100000000000080e+01 1.121700000000000053e+01 4.833529999999999660e+00 2.193259999999999987e+00 1.048850000000000016e+01 2.045999999999999819e+00 6.612079999999999735e+00 9.905829999999999913e+00 6.136050000000000004e+00 4.345720000000000027e+00 3.028490000000000126e+00 8.429520000000000124e+00 3.287599999999999856e+00 1.072649999999999970e+01 9.135999999999999233e+00 4.600999999999999979e+00 7.303619999999999557e+00 6.913509999999999600e+00 4.783190000000000275e+00 1.760310000000000041e+00 4.264280000000000292e+00 1.103229999999999933e+01 1.378919999999999924e+00 7.369040000000000035e+00 1.648849999999999927e+00 5.079110000000000014e+00 1.033919999999999995e+01 6.971049999999999969e+00 7.954080000000000261e+00 6.409279999999999866e+00 4.426829999999999932e-01 4.051719999999999766e-01 1.317120000000000068e+00 4.990980000000000416e+00 2.107790000000000052e+00 7.729639999999999844e-01 6.375860000000000305e+00 1.140949999999999953e+01 7.920160000000000089e+00 8.236980000000000857e+00 8.198029999999999262e+00 3.163800000000000168e+00 7.269860000000000433e+00 5.124369999999999870e+00 4.065650000000000097e-01 5.245090000000000252e+00 9.233459999999999113e+00 4.070809999999999818e+00 1.160430000000000028e+01 4.286190000000000389e+00 3.777759999999999785e+00 5.271320000000000450e-01 1.259889999999999954e+00 1.882249999999999979e+00 2.292390000000000150e+00 5.884319999999999551e-01 4.268759999999999777e-01 8.974809999999999732e+00 2.895950000000000024e+00 1.053159999999999918e+01 4.598279999999999923e+00 6.766469999999999985e+00 1.454599999999999893e+00 8.572210000000000107e+00 3.500640000000000196e+00 1.165750000000000064e+01 8.478379999999999583e+00 8.404159999999999187e+00 8.509330000000000283e+00 7.237639999999999851e+00 9.980930000000000746e+00 1.119180000000000064e+01 9.053570000000000562e+00 7.882590000000000430e+00 1.151099999999999923e+01 3.711609999999999854e+00 1.139450000000000074e+01 9.079259999999999664e+00 2.828910000000000036e-01 6.205289999999999750e+00 1.080019999999999980e+00 7.303520000000000012e-01 2.205919999999999881e+00 4.783689999999999998e+00 1.583180000000000032e+00 8.546879999999999811e+00 3.594040000000000123e+00 4.729460000000000441e+00 4.228620000000000156e-01 1.058639999999999937e+01 2.543789999999999996e+00 9.929679999999999396e+00 5.585379999999999789e+00 7.693220000000000169e+00 7.799959999999999560e+00 3.766809999999999992e+00 1.610449999999999937e+00 1.587280000000000080e-01 3.996809999999999974e+00 5.172039999999999971e+00 5.890749999999999709e+00 9.478540000000000632e+00 4.180399999999999672e+00 3.873400000000000176e+00 9.151439999999999131e+00 3.315460000000000074e-01 3.398400000000000087e+00 5.383470000000000200e-01 1.164020000000000010e+01 1.308650000000000091e+00 6.737619999999999720e+00 4.800500000000000433e+00 2.056000000000000050e+00 5.331640000000000157e+00 7.635810000000000208e+00 8.735179999999999723e+00 8.473219999999999530e+00 2.806849999999999845e+00 7.377439999999999998e+00 9.625909999999999300e+00 5.431240000000000512e-01 7.990649999999999586e+00 1.094350000000000023e+01 6.545709999999999695e+00 4.570479999999999876e+00 6.488559999999999661e+00 3.452949999999999964e+00 3.479839999999999822e+00 5.534810000000000008e-01 2.739329999999999821e+00 5.068629999999999747e+00 3.104880000000000084e+00 5.912440000000000140e+00 3.111619999999999830e+00 6.505130000000000301e+00 1.034580000000000055e+01 3.474959999999999827e+00 2.576830000000000176e+00 8.863590000000000302e+00 8.827019999999999200e+00 1.759579999999999922e+00 1.044609999999999950e+01 6.487180000000000391e+00 5.881660000000000110e+00 7.151220000000000354e+00 1.155059999999999931e+01 6.277319999999999567e+00 1.118689999999999962e+01 1.043689999999999962e+01 2.348090000000000011e+00 2.142170000000000130e+00 3.427709999999999813e+00 8.120929999999999538e+00 7.166920000000000179e+00 7.372109999999999497e-01 1.006830000000000069e+01 6.397780000000000022e+00 9.968320000000000292e+00 1.154199999999999982e+01 4.382449999999999957e-01 1.748410000000000020e+00 9.924680000000000391e+00 9.461389999999999745e+00 9.520250000000000767e+00 8.633290000000000575e+00 9.868700000000000472e+00 6.024309999999999832e+00 1.067999999999999972e+01 1.010859999999999914e+01 7.495399999999999840e-01 1.987570000000000059e+00 1.164559999999999995e+01 6.399449999999999861e+00 7.541199999999999903e+00 9.676619999999999777e+00
1.130100000000000016e+01 3.514050000000000118e+00 9.116080000000000183e+00 2.329060000000000130e+00 4.091160000000000352e+00 5.391510000000000247e+00 6.398369999999999891e+00 6.880790000000000184e+00 1.877920000000000034e+00 3.579480000000000217e+00 2.727739999999999831e+00 1.736969999999999903e+00 8.469969999999999999e+00 1.066999999999999993e+01 2.842080000000000162e+00 5.581339999999999968e+00 5.387220000000000120e+00 1.193979999999999997e+01 9.929140000000000299e+00 5.061569999999999681e+00 1.450620000000000021e+00 1.019139999999999979e+01 1.245649999999999924e+00 5.817669999999999675e+00 9.556050000000000821e+00 7.117250000000000298e+00 5.233579999999999899e+00 3.509479999999999933e+00 9.214499999999999247e+00 3.935950000000000060e+00 1.026459999999999972e+01 9.195449999999999235e+00 3.009279999999999955e+00 7.219479999999999897e+00 6.151699999999999946e+00 4.043210000000000193e+00 3.274929999999999897e+00 5.790890000000000093e+00 1.101159999999999961e+01 2.721630000000000216e+00 5.735560000000000436e+00 1.290200000000000014e+00 5.680240000000000400e+00 8.893779999999999575e+00 7.909279999999999866e+00 9.139670000000000627e+00 7.360570000000000057e+00 1.072029999999999994e+01 2.906210000000000182e-01 5.855200000000000404e-01 4.216280000000000250e+00 2.604319999999999968e+00 1.809779999999999944e+00 6.303259999999999863e+00 1.266310000000000047e+00 8.016619999999999635e+00 7.320940000000000225e+00 6.955840000000000245e+00 4.240680000000000227e+00 8.947749999999999204e+00 4.910149999999999793e+00 1.131060000000000088e+01 5.843009999999999593e+00 8.062079999999999913e+00 5.069420000000000037e+00 1.145500000000000007e+01 4.121629999999999683e+00 3.202339999999999964e+00 1.124319999999999986e+01 2.768159999999999954e+00 1.223500000000000032e+00 3.474689999999999834e+00 1.505970000000000031e+00 6.579629999999999646e-01 8.108589999999999520e+00 1.788480000000000070e+00 1.073230000000000040e+01 6.273939999999999628e+00 5.862610000000000099e+00 1.116489999999999982e+00 1.055480000000000018e+01 4.189079999999999693e+00 1.151340000000000074e+01 8.478289999999999438e+00 8.216979999999999507e+00 8.861169999999999547e+00 6.772289999999999921e+00 1.050459999999999994e+01 9.503669999999999618e-01 8.428259999999999863e+00 7.236239999999999561e+00 1.674950000000000050e-01 4.894339999999999691e+00 4.825860000000000150e-01 6.830519999999999925e+00 9.120669999999999611e-01 7.676540000000000141e+00 1.466970000000000107e+00 1.501139999999999919e+00 1.087800000000000100e+00 4.220760000000000289e+00 2.955970000000000208e+00 8.569860000000000255e+00 3.922449999999999992e+00 4.822129999999999583e+00 1.102640000000000065e+00 1.084169999999999945e+01 1.544780000000000042e+00 9.989470000000000738e+00 5.521639999999999660e+00 8.539410000000000167e+00 6.325380000000000003e+00 3.667209999999999859e+00 1.875469999999999970e+00 1.169929999999999914e+01 4.120099999999999874e+00 5.707550000000000345e+00 6.916479999999999961e+00 8.752250000000000085e+00 4.424669999999999881e+00 3.878509999999999902e+00 8.352510000000000545e+00 1.046100000000000030e+00 3.558889999999999887e+00 1.133179999999999943e+01 1.172320000000000029e+01 5.119320000000000537e-01 7.990240000000000009e+00 4.100559999999999761e+00 1.896039999999999948e+00 5.533089999999999620e+00 7.471980000000000288e+00 9.386580000000000368e+00 7.572519999999999918e+00 1.418099999999999916e+00 7.049210000000000420e+00 9.572129999999999583e+00 7.380989999999999496e-01 7.018159999999999954e+00 6.589030000000000165e-01 7.620169999999999888e+00 4.115709999999999980e+00 6.250460000000000349e+00 3.396450000000000191e+00 5.120820000000000149e+00 3.449490000000000056e-01 3.108950000000000102e+00 4.831089999999999662e+00 3.229870000000000019e+00 5.515489999999999782e+00 2.729849999999999888e+00 8.767170000000000130e+00 9.684100000000000819e+00 4.183930000000000149e+00 2.966279999999999806e+00 8.636580000000000368e+00 9.166819999999999524e+00 2.069659999999999833e+00 1.077839999999999954e+01 6.622049999999999770e+00 5.569869999999999877e+00 6.394800000000000040e+00 8.413829999999999920e-01 5.374620000000000175e+00 1.075910000000000011e+01 1.064080000000000048e+01 2.200410000000000199e+00 2.433300000000000018e+00 3.794919999999999849e+00 7.508740000000000414e+00 6.622919999999999696e+00 1.085270000000000046e+01 1.008699999999999974e+01 6.093160000000000132e+00 1.005240000000000045e+01 1.080289999999999928e+01 1.204240000000000066e+01 5.967989999999999684e-01 1.087480000000000047e+01 1.003909999999999947e+01 9.953170000000000073e+00 9.378949999999999676e+00 9.313900000000000290e+00 6.234960000000000058e+00 1.027970000000000006e+01 1.008179999999999943e+01 1.416449999999999987e+00 2.094460000000000210e+00 1.084169999999999945e+01 5.080370000000000275e+00 6.565680000000000405e+00 9.241929999999999978e+00
1.047560000000000002e+01 2.778620000000000090e+00 9.986829999999999430e+00 1.648109999999999964e+00 5.321760000000000268e+00 4.289609999999999701e+00 5.120320000000000427e+00 6.717249999999999943e+00 6.575859999999999594e+00 2.250570000000000181e+00 5.070509999999999629e+00 1.155719999999999992e+01 8.078649999999999665e+00 9.577320000000000277e-01 4.803960000000000008e+00 5.091610000000000191e+00 7.317730000000000068e+00 1.158050000000000068e+01 1.555709999999999871e-01 5.791479999999999961e+00 1.155620000000000047e+01 1.116300000000000026e+01 9.888600000000000279e+00 3.298970000000000180e+00 6.941860000000000142e+00 8.135059999999999292e+00 8.028180000000000760e+00 2.811949999999999950e+00 5.332659999999999734e+00 7.420069999999999943e+00 2.377639999999999976e+00 8.938109999999999999e+00 2.486289999999999889e+00 1.257250000000000034e-01 4.329349999999999810e+00 5.895839999999999748e+00 4.964269999999999960e+00 7.043720000000000425e+00 8.988839999999999719e+00 5.864550000000000374e+00 2.453190000000000204e+00 1.041070000000000029e+01 1.015600000000000058e+01 7.509699999999999598e+00 7.899100000000000565e-02 9.614679999999999893e+00 5.229190000000000005e+00 1.565620000000000012e+00 8.451579999999999870e+00 9.255369999999999209e+00 3.487789999999999946e+00 4.389669999999999739e+00 1.736939999999999928e+00 5.279959999999999987e+00 1.158779999999999921e+00 7.197429999999999772e+00 6.723989999999999689e+00 8.035629999999999384e+00 2.108519999999999950e+00 9.854699999999999349e+00 4.194679999999999964e+00 1.091810000000000080e+01 5.083940000000000126e+00 9.029659999999999798e+00 5.354470000000000063e+00 1.007150000000000034e+01 3.421320000000000139e+00 2.495690000000000186e+00 7.329629999999999868e+00 2.382779999999999898e+00 2.019680000000000142e+00 1.853410000000000002e+00 1.072540000000000049e+00 1.769459999999999922e-01 4.513670000000000293e+00 2.591470000000000162e+00 9.298590000000000799e+00 5.491880000000000095e+00 6.312179999999999680e+00 7.237949999999999662e-01 2.063879999999999881e-01 5.036489999999999689e+00 4.549760000000000026e+00 5.000600000000000378e+00 4.507999999999999854e-03 9.833909999999999485e+00 6.023450000000000415e+00 1.718849999999999989e+00 2.634930000000000216e+00 4.955420000000000158e+00 7.219599999999999795e+00 2.832949999999999857e+00 6.135200000000000209e+00 2.616670000000000051e+00 7.565459999999999852e+00 1.165719999999999956e+01 6.188380000000000436e+00 1.564559999999999951e+00 3.085119999999999862e+00 1.293880000000000030e-01 6.805780000000000385e+00 2.509290000000000020e+00 7.530310000000000059e+00 4.441440000000000055e+00 3.211149999999999949e+00 2.712130000000000152e+00 1.146400000000000041e+01 5.705710000000000504e-01 9.806020000000000181e+00 7.385329999999999728e+00 8.108969999999999345e+00 6.932039999999999758e+00 4.883639999999999759e+00 1.170069999999999943e+01 1.123809999999999931e+01 3.738020000000000120e+00 2.962579999999999991e+00 4.241369999999999862e+00 9.780590000000000117e+00 7.446159999999999890e+00 4.913940000000000197e+00 1.013530000000000086e+01 1.118919999999999959e+01 3.956249999999999822e+00 9.379880000000000440e-01 9.405640000000000001e+00 1.048770000000000024e+01 7.406139999999999723e+00 4.986559999999999881e+00 1.290249999999999897e+00 3.944090000000000096e+00 9.150199999999999889e+00 7.401180000000000092e+00 7.365420000000000300e+00 5.113190000000000346e+00 7.808349999999999902e+00 1.036250000000000071e+01 5.865960000000000285e+00 1.061469999999999914e+01 1.774680000000000035e+00 5.744620000000000282e+00 3.525910000000000100e+00 6.056630000000000180e+00 3.066809999999999814e+00 4.899650000000000283e+00 1.009720000000000084e+01 2.817730000000000068e+00 4.624769999999999825e+00 4.048820000000000086e+00 5.574540000000000051e-01 1.992520000000000069e+00 7.987320000000000420e+00 9.020049999999999457e+00 1.055480000000000018e+01 5.508199999999999902e-02 9.643589999999999662e+00 9.220179999999999154e+00 1.161289999999999933e+00 1.254629999999999912e+00 9.060119999999999507e+00 4.454799999999999649e+00 7.330370000000000275e+00 5.468370000000000175e+00 3.994099999999999984e+00 8.224769999999999470e+00 5.214940000000000131e-01 9.834410000000000096e+00 6.203300000000000480e-01 1.249910000000000077e+00 2.301989999999999870e-01 7.458879999999999733e+00 1.130850000000000044e+01 8.960979999999999279e+00 9.756130000000000635e+00 7.863959999999999617e+00 1.055230000000000068e+01 1.244329999999999936e+00 7.656500000000000306e+00 1.104829999999999934e+01 1.011619999999999919e+01 6.734829999999999650e+00 6.507359999999999811e-01 7.556449999999999889e+00 6.112960000000000171e+00 7.152680000000000149e+00 1.864030000000000076e+00 2.799550000000000094e-01 1.726909999999999945e+00 3.310290000000000177e-01 7.795930000000000248e+00 8.329069999999999752e+00 1.041430000000000078e+01
4.144630000000000258e+00 6.104389999999999539e-01 3.928479999999999972e+00 7.507699999999999818e+00 1.144159999999999933e+01 6.834810000000000052e+00 1.224619999999999997e+01 1.817069999999999963e+00 7.955350000000000144e+00 9.866960000000000619e+00 3.572020000000000195e+00 4.732680000000000220e+00 1.012229999999999919e+01 2.552769999999999762e-01 2.975870000000000015e+00 3.721089999999999787e+00 6.967399999999999594e+00 9.953709999999999170e+00 8.384219999999999118e+00 1.040800000000000058e-01 9.613420000000000298e-01 1.071480000000000032e+01 6.712310000000000443e+00 3.610609999999999875e+00 2.713909999999999823e+00 2.190259999999999874e+00 1.000779999999999959e+01 5.700709999999999944e+00 5.372869999999999591e-01 1.013100000000000023e+01 6.292589999999999684e+00 1.105560000000000098e+00 2.482000000000000206e+00 3.987769999999999815e+00 3.919659999999999922e+00 6.600609999999999644e+00 9.371639999999999304e+00 9.125420000000000087e+00 1.147289999999999921e+01 1.409769999999999968e+00 1.148930000000000007e+01 2.733270000000000088e+00 4.754480000000000040e+00 9.740959999999999397e+00 5.551960000000000228e+00 3.638040000000000163e-01 1.046529999999999916e+01 9.270839999999999748e+00 2.293130000000000113e+00 1.997370000000000090e+00 5.674459999999999837e+00 1.080429999999999957e+01 4.577210000000000001e+00 8.986800000000000566e+00 2.603629999999999889e+00 1.074290000000000056e+01 5.812109999999999665e+00 3.217950000000000088e+00 1.125189999999999912e+01 8.922650000000000858e+00 6.582180000000000142e+00 3.805779999999999941e+00 7.845769999999999911e+00 3.876439999999999886e-01 4.857679999999999776e-01 5.016750000000000043e+00 8.020590000000000330e+00 7.508409999999999584e+00 5.450409999999999755e+00 8.058170000000000499e+00 2.410519999999999996e+00 1.144669999999999987e+01 3.729579999999999895e+00 4.203179999999999694e+00 6.360019999999999563e-01 5.203769999999999563e+00 1.355140000000000011e+00 3.681110000000000215e-01 1.115799999999999947e+01 7.348550000000000360e+00 9.418720000000000425e+00 1.078650000000000020e+01 5.795530000000000292e+00 1.081730000000000080e+00 8.396160000000000068e+00 5.385550000000000281e+00 1.052860000000000085e+01 7.853060000000000151e+00 7.454649999999999999e+00 9.150050000000000239e+00 3.907880000000000020e+00 1.126609999999999978e+01 1.645669999999999966e+00 6.727130000000000054e-01 6.221540000000000070e+00 2.228330000000000144e+00 1.184810000000000052e+01 2.753960000000000186e+00 2.679370000000000029e+00 9.016980000000000217e+00 8.403790000000000759e+00 2.265589999999999993e+00 1.113899999999999890e+00 6.497989999999999711e+00 1.090169999999999995e+01 3.458889999999999798e+00 3.821569999999999911e+00 3.673270000000000035e+00 1.037480000000000047e+01 2.082720000000000127e+00 1.027849999999999930e+01 2.942050000000000054e+00 6.742519999999999847e+00 5.647350000000000314e+00 8.801349999999999341e+00 5.732899999999999885e+00 7.413100000000000023e+00 1.120739999999999981e+01 1.150569999999999915e+01 7.563930000000000042e+00 2.220060000000000144e+00 1.759840000000000071e+00 1.253670000000000062e+00 2.585809999999999942e+00 8.646399999999999864e+00 3.551489999999999814e+00 5.753910000000000302e+00 9.359090000000000131e+00 3.377369999999999983e+00 5.679419999999999469e-01 4.183080000000000354e+00 5.647240000000000038e+00 1.181329999999999991e+01 9.410360000000000724e+00 4.143709999999999560e+00 6.736290000000000333e+00 9.782149999999999679e+00 1.352829999999999866e-01 5.701529999999999987e+00 9.016740000000000421e+00 9.636430000000000717e+00 6.786859999999999893e+00 5.352380000000000138e+00 4.541760000000000019e+00 9.242689999999999628e+00 1.487049999999999983e+00 6.143489999999999895e+00 1.212279999999999980e+01 7.001319999999999766e+00 6.568699999999999761e+00 1.866530000000000022e+00 4.104569999999999830e+00 8.242089999999999250e+00 4.914749999999999730e+00 1.420050000000000034e+00 6.709800000000000431e+00 1.194229999999999947e+01 3.537539999999999907e+00 1.197320000000000029e+01 4.813399999999999679e+00 4.163590000000000124e+00 1.047330000000000005e+01 1.218720000000000070e+01 8.124359999999999360e+00 4.053760000000000141e-01 8.793820000000000192e+00 3.037380000000000191e+00 2.318789999999999907e+00 9.062509999999999621e+00 9.953269999999999840e+00 5.218029999999999724e+00 1.839139999999999997e+00 8.310610000000000497e+00 8.084239999999999426e+00 5.549129999999999896e+00 7.215099999999999625e+00 6.832349999999999923e+00 3.190290000000000070e+00 9.503650000000000375e+00 1.139480000000000004e+01 7.404189999999999827e+00 5.471569999999999823e+00 5.791479999999999961e-01 8.638090000000000046e+00 1.121059999999999945e+01 8.970629999999999882e+00 1.115450000000000053e+01 -8.037600000000000300e-02 6.438399999999999679e-02 4.385299999999999976e+00 6.874979999999999869e+00 9.542990000000000084e-01