-1.049738592349874853e+04
-1.049599759447542783e+04
-1.049902901092124375e+04
-1.049649546314216605e+04
-1.049623116541384115e+04
-1.050000114911433775e+04
-1.049836555523230527e+04
-1.049586355318070673e+04
-1.049705848968581813e+04
-1.049887169973151140e+04
-1.049600964183623000e+04
-1.049967035279807351e+04
-1.049723523541310533e+04
-1.049839170255741192e+04
-1.049901458271890260e+04
-1.049923461653256163e+04
-1.050052486970595783e+04
-1.049677324386136024e+04
-1.049556467691889520e+04
-1.049705060523182328e+04
-1.049796671324714771e+04
-1.050154400435983189e+04
-1.049980846804874818e+04
-1.049973489792957480e+04
-1.049688962853127850e+04
-1.049490712116286886e+04
-1.049735131409136375e+04
-1.049757358401556121e+04
-1.049592521869531811e+04
-1.049986363352235458e+04
-1.049785327509210219e+04
-1.049470398097233556e+04
-1.049784648116432254e+04
-1.049895234856185380e+04
-1.049784291607551677e+04
-1.049954759450449092e+04
-1.049789895256569253e+04
-1.050014946293803951e+04
-1.049573544404078348e+04
-1.049410863050444823e+04
-1.049522078365317975e+04
-1.049653966918037622e+04
-1.049967959277470982e+04
-1.049771715551528905e+04
-1.049788309636903068e+04
-1.049837702876631738e+04
-1.049703422540803695e+04
-1.050074926621144550e+04
-1.049573852495745996e+04
-1.050062215823597762e+04
-1.049680791206349750e+04
-1.049761410270902888e+04
-1.049991691307912879e+04
-1.049585036713269619e+04
-1.049692853157848549e+04
-1.049805238275046031e+04
-1.049515443622731800e+04
-1.049834155211803409e+04
-1.049491043472926322e+04
-1.049922145076179004e+04
-1.049844647336441267e+04
-1.049912668512654636e+04
-1.049739765394693677e+04
-1.049783951474322021e+04
-1.050149656927266551e+04
-1.049598689347576510e+04
-1.049727972088288152e+04
-1.049906190155920194e+04
-1.049514243482606980e+04
-1.050545307128714740e+04
-1.049489502582834757e+04
-1.049482035333552085e+04
-1.049859221576796335e+04
-1.049696210783939387e+04
-1.049531664199449915e+04
-1.049959119894796822e+04
-1.049894096531219839e+04
-1.049874874123555674e+04
-1.049761466407157786e+04
-1.049615575498045291e+04
-1.049795021004936279e+04
-1.049796937565099688e+04
-1.049936377673369498e+04
-1.049969117328187349e+04
-1.049642373828017298e+04
-1.049708764391194745e+04
-1.049673188361256325e+04
-1.050132907125368911e+04
-1.049814853969565775e+04
-1.050156577003259008e+04
-1.049775357475058081e+04
-1.050081797752644161e+04
-1.050042051992697998e+04
-1.049693673584028147e+04
-1.050620459074015344e+04
-1.049896430225531185e+04
-1.049520579657441522e+04
-1.049857134795806269e+04
-1.049662591329398128e+04
-1.050059488521714047e+04
-1.051099415370089446e+04
-1.049838133522169665e+04
-1.049721513084781145e+04
-1.050058072031306256e+04
-1.049968131846944743e+04
-1.049795090782039370e+04
-1.049765233794625601e+04
-1.049669335430812862e+04
-1.050469930110771747e+04
-1.049804735779646398e+04
-1.049990710616893557e+04
-1.049896839886604357e+04
-1.049756296855331311e+04
-1.049885982760598381e+04
-1.049711333189475590e+04
-1.049846856695413408e+04
-1.049849539411850674e+04
-1.049935557077740486e+04
-1.049500903622439910e+04
-1.049765421178000361e+04
-1.049784843483402074e+04
-1.049903097586300646e+04
-1.051049738641700242e+04
-1.049568029099375599e+04
-1.049581323091260310e+04
-1.049735436582602233e+04
-1.049854016042862895e+04
-1.049714961539508295e+04
-1.050149887705685796e+04
-1.049890111424964743e+04
-1.049599771341752785e+04
-1.049754306114834799e+04
-1.049912923631004378e+04
-1.050042237232439220e+04
-1.049777687508230520e+04
-1.049685633654201047e+04
-1.049667901524953959e+04
-1.049865977973787994e+04
-1.049620907071711008e+04
-1.050013836451398856e+04
-1.049872160659680412e+04
-1.049884325817108584e+04
-1.049701264739043472e+04
-1.049703725434517037e+04
-1.049998522541416423e+04
-1.049760966489913699e+04
-1.049651481117576805e+04
-1.049800644464974539e+04
-1.050020447309811061e+04
-1.049917521458247029e+04
-1.049766604839377578e+04
-1.049843237700043755e+04
-1.049915321664393196e+04
-1.049612966117404358e+04
-1.049725197440867851e+04
-1.050074517888776427e+04
-1.049832312880320569e+04
-1.049698563409521557e+04
-1.049951508289939375e+04
-1.050102148326039969e+04
-1.049675249488974077e+04
-1.049817568292466058e+04
-1.049672853089546152e+04
-1.049699253827954817e+04
-1.049977719095878456e+04
-1.050750439830183495e+04
-1.050091325486454662e+04
-1.049945109126924399e+04
-1.049772886574876065e+04
-1.049708631715097908e+04
-1.050248666494772624e+04
-1.050014555857643245e+04
-1.050089773137332850e+04
-1.049931816171825812e+04
-1.051104204625921011e+04
-1.049996091714672548e+04
-1.049787828631128468e+04
-1.049855452806356516e+04
-1.049727494702729018e+04
-1.049826263397214643e+04
-1.050062092863618454e+04
-1.049725202535164681e+04
-1.049758228830636472e+04
-1.049756640583780609e+04
-1.050154974614278399e+04
-1.050048727329655776e+04
-1.049963209131505391e+04
-1.050171340611756204e+04
-1.049860408640801325e+04
-1.049892600985121680e+04
-1.049877284276311366e+04
-1.049642223124836528e+04
-1.049609078545063676e+04
-1.049739207237862320e+04
-1.049922267398956319e+04
-1.049863123140153402e+04
-1.049727024090421946e+04
-1.049449180209072438e+04
-1.049757763342363796e+04
-1.049630521412601593e+04
