4.453911718418236965e-01 7.164810898680775697e-01 -7.055472165728985390e-01 1.672739146606098404e-01 1.179199954341592305e+00 1.514729430849027336e+00 8.114987782226452673e-01 4.682626771055668491e-01 4.940410716011986447e-01 -1.408028135518032631e+00 -3.362977221314296106e-01 -5.941516010936798153e-01 4.651917514921159458e-01 -4.439379843361953570e-01 3.391110232083201503e-01 2.040756568413637229e-01 1.117075931365663966e+00 -1.333183322551221739e+00 -1.372740773098098055e+00 -5.132117309774658631e-01 3.896954209847418027e-01 -1.910517852100644731e+00 -2.004277756789689946e-01 -8.269547077543761837e-01 -6.979434360896265011e-01 2.133126020514140853e-01 2.211168257369839463e+00 1.165697034769654916e-01 7.354671440375080138e-01 1.758374365311800247e+00 -5.152249047511866520e-01 6.272823221836054675e-02 1.024009710308994014e+00 1.635838674064027942e-01 -1.328036488246963298e+00 1.524981447586363670e+00 -1.687466425502487724e-02 -1.114192696282840789e-01 -3.839104388763486808e-01 3.473884327193250687e-01 4.387772660748768261e-01 -6.506510787983544875e-01 -7.059390526943736255e-01 -1.020686302365301223e+00 -1.255503097020350234e+00 8.158521700919479924e-02 3.561049866499358951e-01 -8.593835176818167554e-01 -5.423382160071195390e-02 -1.373087357803969843e-01 -8.277995722525175459e-01 1.975815644816395489e-01 -2.683398660870816022e-01 -1.451418586654772636e+00 -8.406890266106493981e-02 1.571944703673247012e+00 1.383397481472706247e-01 4.696191911324060775e-01 -2.307220043415072031e+00 -7.133587421914407978e-01 -7.313857748824575955e-01 -5.888181047000572432e-01 5.691748765631134965e-01 1.495434330079850715e+00 -4.171671440210791837e-01 -9.687417910176173708e-01 -4.549587609181581227e-01 -7.175326710602254465e-01 1.822856604105425715e+00 -2.569221111773250521e-01 -1.371032532159068618e+00 3.002138319527483112e-01 3.618987105090706313e-01 -4.148279543667610092e-01 -4.706800282959274218e-01 -9.655829336761187487e-02 -3.741165927219970433e-01 4.425588446015544242e-01 2.322693456448286231e-01 4.181179379693831383e-02 -2.561502660089074457e-01 1.288354596307177191e+00 6.396513852622978114e-01 5.592972124457690208e-02 -2.196529424422129506e-01 -5.476732550626377538e-01 3.276140783212576069e-01 -1.649054144302757041e-02 -1.931201862796467494e-01 -6.480722623295908091e-01 -2.848525190172790933e-01 6.516790058414370090e-01 -7.058994577057206010e-01 -1.939773920729526424e-01 -1.411597340923753219e+00 -1.796825727279551810e-01 8.734489946250059145e-01 1.731933140421704431e+00 3.512204048679246626e-01 -1.567832995500917093e-01 4.354173484663219629e-01 7.219853075114766039e-01 -3.463389084097045489e-01 2.254534025916250517e+00 1.097878018295908475e+00 4.506125681377013970e-01 3.723497306309357380e-01 -3.963833745226761351e-01 -4.168514125531189163e-01 -6.180325214577586657e-01 1.082483281019368304e+00 1.074727805449698481e+00 4.013497173851527378e-01 6.991199728953157999e-01 5.081631128138921344e-02 3.056270325443087577e-02 1.265608046656975461e+00 1.308687394311441654e+00 -8.534674093123001404e-02 7.572515868855050902e-01 -1.413027388500948334e+00 1.572341167780408888e+00 -1.460862248558829402e+00 6.823697500332003285e-01 -3.069172121096384043e-01 -5.350023444730451772e-01 -1.237868414671440487e+00 9.549498794505760779e-01 5.997231816398522763e-01 -5.026506676403832974e-02 3.452796139080788196e-01 -1.197892388530232138e-01 4.485135195184604406e-02 -4.537107474446407940e-01 -4.052469955539982072e-02 5.857245533788045799e-01 -4.290173584822277175e-01 1.623086002393970065e-02 1.037419041725933466e+00 2.409241930996166847e-01 -5.457572689883378736e-01 -6.208957019359394591e-01 8.124660272311685638e-01 -1.024963589581089130e+00 1.956393531551150478e-01 -7.181692762024646237e-01 -3.473755772035286293e-01 1.586538799425985413e+00 9.160130932063512699e-01 -1.150020504586857228e+00 -2.148418942105572993e-01 -2.921647364022880375e-02 3.509303844315572185e-01 -2.708426807464568764e+00 2.713614265198744047e+00 -1.137542940954842985e+00 -3.308428696686887549e-01 -5.064852108921422680e-01 6.293104083556501083e-01 -1.331749161208971854e-01 -1.623651645089012829e+00 3.900209226447073907e-02 6.479138823749788223e-01 -7.050041995856574095e-01 3.701272690600490578e-01 -2.976303874982978437e-01 2.156589907945783702e-01 -8.280988486602584020e-01 -1.450169544739991379e+00 8.386542555703905277e-01 -7.967704708849921991e-01 -3.546456284967252626e-01 6.712846958722553659e-01 2.154584447481540182e-04 3.358889167291031486e-01 -1.103629061842598791e+00 -3.916582011365406513e-01 -8.274051650278830827e-01 -1.496675144464522100e+00 -1.547559847089948093e+00 1.299564091861031834e+00 1.035881007816048749e+00 1.256658036559501257e+00 -2.240850100681898993e-01 9.295077852481790082e-01 6.131201717616271418e-01 2.416836969728696871e-04 5.717634632238823844e-01 -3.757513001106709688e-02 2.781672908486935825e+00 -4.459049296751122604e+00 4.267013087563429896e-01
-2.457882574784168384e+00 5.315035872938889822e-02 3.127114501894049381e-01 9.412196743593579384e-01 1.116907781219046714e-01 -4.682873596958960771e-01 1.927606432138522452e+00 -7.055621289712224464e-02 4.758222346144990733e-01 -1.058994710997396504e+00 -3.578739056235245575e-01 -7.422898233809889224e-01 1.134427278146420193e+00 3.803432903531554776e-02 1.076088947462224416e-01 1.034405708823250558e+00 6.160841394836519269e-01 5.807304426022077415e-01 2.424000063130467286e-01 1.373886456665875944e+00 1.041549776061642119e+00 1.009813107104681196e+00 6.153246356103988512e-01 -2.031562303516031287e-01 -2.797370521715639713e-01 1.818073323787889883e-01 -4.882550610515417611e-01 1.527002848890194109e+00 8.355571047047148300e-03 -9.562822251077179869e-01 -2.455696622878143220e-01 -9.382829603308216748e-02 -9.167741397414999049e-01 -9.993713429541896121e-01 -3.719234417271262139e-01 -1.163641180683489651e+00 -1.337154134270422734e+00 4.583078798934439591e-01 -2.168375844827949706e-01 -7.097895367857200988e-01 2.393683157338064138e+00 1.121034916010332338e+00 1.251602733527713562e-01 -2.541628032667794801e-01 -2.195979208346042766e-01 4.134169329529449044e-01 -8.427772765966213830e-01 6.312017118396208160e-01 -5.247693538990875206e-01 -6.372273492037231479e-01 1.211281151121897492e+00 -2.670322030202688657e-01 3.247889501698342785e-01 -1.162308835026347964e+00 -2.030728237651159063e+00 1.995289180144826646e-01 -2.256790940269471635e-01 9.028331041912202037e-01 -1.150604659224646886e-01 4.388965652614676416e-01 -6.520780410517582060e-02 -4.960892123778857798e-01 1.235337934942071225e+00 2.519742802575953844e-01 -4.141970056514722720e-01 5.017117007666120898e-01 1.907156906050826439e-01 9.373367943682044123e-02 3.701627502836472572e-01 -5.364822714515301572e-01 -3.971634472212035027e-01 -1.373891598872194475e+00 4.456102298309948528e-01 -1.485438395217179242e+00 4.523511480940105578e-01 7.131725943227084329e-03 -2.962939280761011096e-01 -6.668258887734217211e-02 5.889050079868410892e-01 -1.536234137673293976e+00 1.460324887998538657e-01 -3.504716996279406693e-01 4.642872374006791758e-01 -4.569343965857534662e-01 -4.401240099097107339e-01 4.166606366986999599e-01 -1.692726902566386304e-01 5.068029992426299479e-01 3.304407491345764392e-01 -3.867057422311241943e-01 -7.712615280004536666e-01 3.318934224195729810e-02 4.206746429509770069e-01 1.595868304349770117e-01 -7.028460155937528153e-01 5.892248532198563621e-02 5.115549121016219614e-01 4.790767369935231001e-01 -2.786114232084285769e-01 7.545570707745734296e-02 -1.950351439126828401e-01 -2.530371743036441967e-01 -1.064575033294310469e+00 1.687312159312930396e-02 -3.986870829533962768e-01 -4.252861735774721152e-02 1.596310534093167144e-01 -2.807130429308288613e-02 -1.239858962737359738e+00 8.002769413736261495e-01 7.487186097204672208e-01 -3.842359405363142411e-02 -3.804908716744984654e-01 5.068708763660351169e-01 -2.589584248794794541e-01 6.957950222897272274e-01 -8.567903030353610783e-01 6.415210914797304931e-02 -1.117692996123892391e+00 -6.955116867215740406e-01 -5.992763239107684603e-01 -4.681824586869971772e-02 4.066194504204249660e-01 2.051269809231957453e+00 -4.949075333658779496e-01 1.177062339174961947e+00 -6.004436047450841807e-01 1.338492650575146881e+00 -6.611370659231858848e-01 2.339766095646576449e+00 9.124654850671687356e-01 4.468901249836872980e-01 1.393537912332929417e-02 4.971927298538512674e-01 8.099540594445463204e-02 1.617239313809754053e-01 -2.062214995381037030e-01 -4.827133053020170594e-01 -5.195685264284840774e-03 -3.531986116386792163e-01 -1.033229686238193112e+00 9.137248113945868333e-01 7.643216063529093551e-01 1.826309595648346384e+00 1.095434956073954913e+00 3.767499165777375425e-01 -8.189323516767725852e-01 -9.991589698332326019e-01 1.966400265047090479e-01 -2.701391240779498770e-01 -1.045504646941255444e+00 4.928228829243290199e-01 -5.763821929392234367e-01 -1.046948064254878685e-01 -5.410680910464323728e-02 -1.661640208488093018e+00 -6.611468361151913165e-01 8.258861572813770424e-01 9.137973165036787915e-01 -1.528531112608073617e-01 -1.240333588380563734e+00 2.660479847308942492e-01 4.389952956227842484e-02 2.913985476608208502e-01 -7.075362219769220085e-01 2.590777240660703251e-01 2.764666089529523307e-01 8.490991050446733412e-01 -3.594888155178720179e+00 -2.803917578800445565e+00 -8.084576774058419568e-01 -7.423289041490099827e-02 5.494498873457042548e-02 1.928723319350915955e-01 -1.841836487627273700e+00 -1.150042101853395060e+00 5.457109891314706474e-01 6.805422099075799647e-01 -9.060552106704371500e-01 -1.172052801779409403e+00 2.450613037711603326e+00 7.501399155469204993e-01 2.019516685214776786e+00 2.919539059432266215e-02 5.530987969493627032e-01 2.976771815757968676e-01 1.731620494277535505e+00 -6.640845785849911476e-01 -3.094692891055454975e-01 5.671735298639253298e-01 4.891719164381431173e-01 8.450434469212159128e-01
1.011912155723922346e+00 2.676862916639912160e-01 1.195264206880810365e+00 1.716396992471403982e+00 3.220322133624479721e-01 -8.314114579706823882e-01 1.666633290823426261e+00 -3.658756928758539750e-01 2.432673936748634080e+00 -4.592648444893301374e-01 -2.968852818027368362e-02 -1.632689586914534585e+00 -3.046217312090279683e-01 -8.112951468524297605e-01 3.880807682007103021e-01 9.157755232744332896e-02 -8.443482206269450341e-01 -1.071610085758748637e-01 -3.257531138545664562e-01 1.458873243154805932e+00 2.827107900855940215e-01 -9.861373607727136337e-01 -8.681653776326734295e-01 4.057982400713491256e-01 1.918392626856905425e-01 -9.819402919754952053e-02 2.626263606465166212e-01 -7.502206481861219967e-01 8.138683068942431653e-01 -4.648359108148706897e-01 5.234663188179614762e-02 -2.674687763367156190e-01 1.898122049549095802e-01 -4.192456238150459313e-01 1.468521564870341745e-01 2.372973949831280391e-02 1.135897949153532038e-01 6.980977022791837738e-01 -9.414469598786388005e-01 -6.771900056085030650e-01 5.914956515301376117e-01 -5.195860099299671742e-01 3.226107115732873010e-01 -9.828021257544879985e-01 3.685933489152191100e-01 -3.722443154014050837e-03 4.213981513800000300e-01 3.084850708161708810e-01 -1.133991733271237479e+00 -6.958886104447252752e-01 -1.295122768263681445e+00 1.708684711434810266e+00 -2.766825816183323683e-01 1.759600781518779300e+00 1.001502787473237621e+00 -3.927576048474512582e-01 -5.348028268678847175e-01 -8.164075283743538192e-02 7.322306393805988467e-01 6.219477973487191891e-01 2.478713138360070234e-01 5.994881828110936173e-01 -7.273146901400443509e-01 1.245109155388621103e+00 1.408680167279227513e+00 -1.300152360263876483e+00 2.092585380119153182e+00 -1.147445801883148375e+00 -6.989533654105940519e-01 3.506316222444481601e-01 3.931952066051617178e-01 4.875258961955683534e-01 -6.344042779348272321e-01 1.231157321205072597e+00 -3.993843661301946235e-01 -2.049143506919227919e-01 -1.352127724849471746e-01 7.052124589415594835e-01 -5.977902262847012427e-01 -4.770388806294731943e-01 2.637283354605865493e-01 6.379837677531849938e-01 4.118490742464123722e-01 1.915975789887176817e-01 4.431573974170361918e-01 -1.391857439308020306e+00 -3.961961982126802062e-01 -4.579571814225173454e-01 3.193315266039341571e-01 -2.684457955372442362e-01 -1.221552194022612614e+00 -5.086259113825635642e-02 -2.075738997998880786e-01 6.972523235604104197e-02 -3.030183912788973477e-01 -2.554524686114772458e-01 -1.072545967308728421e-01 3.197609008315349111e-01 3.192981022628634258e-01 -9.474813389934827468e-01 1.444085800444489150e-02 1.581066463461761495e+00 -3.229475260871537690e-01 -2.929982880465284989e-01 -3.288286674537042042e-01 5.506495640798270141e-01 -2.559774878766034045e-01 1.011076032976522404e-01 -6.280402833949629837e-01 5.049358641283565596e-01 -3.078896033244802460e-02 -2.121213071135905626e+00 5.045244876228707209e-01 9.860571423541437674e-01 -1.000683119786057063e+00 1.251564681200955986e+00 -3.938132998046540156e-01 -5.495373048531199817e-02 -1.025556485969620346e-01 2.766609843517943423e-02 -2.967731817049920062e-01 7.116299324271369714e-03 5.983800373494413405e-01 2.103794875673007936e-01 3.298283123620345814e-01 -1.270325506733633036e-01 -4.403687789304747136e-01 1.081244009296592701e+00 -1.720926762017433720e-01 1.390668561207166476e-01 -2.392766301951462782e-01 1.868353817170884112e-01 5.624411573889437355e-01 -2.291161447302804410e-01 -7.955322276034801909e-01 -3.343200295813069656e-01 1.468223316903864983e-01 -2.643572272933478740e-01 5.540994702989567866e-01 1.727638369704433297e+00 4.481165411906666840e-01 2.067272355295352693e+00 -1.583789261707445162e+00 2.252168096789075591e-01 1.873080018998283247e+00 2.764398694800958012e-01 -3.711315419540661686e-01 1.154299848685172325e+00 1.208151090135782951e-01 1.767793858846159694e+00 -1.924704685112952118e+00 2.388961069275719884e-01 -2.057166891438094947e+00 5.897056495106427487e-01 5.692730927037981115e-01 3.594417643300571452e-01 -2.586272667925634261e-01 -6.335182757861372860e-01 -1.087093783204599706e+00 -7.827409893860330925e-01 -4.170905251469325115e-01 1.560700755337058043e-01 -3.014006531710746173e-01 -4.371626132908453255e-01 9.304925177581854778e-02 -9.783618305984013164e-01 -1.223896525883249320e-01 -8.515390819428357572e-02 4.575843714644208804e-01 4.111913860582670777e-02 -2.179904671394187476e-01 -9.003669020408331392e-01 -6.895930072488979379e-01 3.940961211521754604e-01 -2.097387686600067636e-01 -9.031832884415148532e-01 -5.491845494996658861e-01 -1.998539054538163717e-01 -1.528301770206265342e+00 1.797200079899543779e+00 -4.406557140430509834e-01 6.337378479959403510e-01 5.827292181982365316e-01 -1.835896210888059710e-01 4.395619667590908164e-01 -9.605672256329838010e-01 -8.058084127105139549e-01 -1.906214339632632315e+00 -8.131211443161547869e-01 3.753383809432896401e-01 4.558103102845136312e-01 -6.771545243849048656e-01
5.227618365523172272e-01 -2.151265153302902355e+00 -1.954928002750357385e-01 2.624195925304468879e+00 3.880591709341723039e-01 -1.459987045043408704e+00 -4.238370998368985454e-01 5.832861191425379177e-01 -1.289211802100483251e+00 6.229628688760052713e-02 6.734763042052305249e-01 -8.998079442140044515e-01 -9.611642357865700648e-01 1.207262002663301637e+00 6.755830661339493060e-02 1.174933465759073314e+00 9.957008360839930683e-02 -1.398803531603146910e-01 4.060198691636794921e-01 -1.475052166894928130e+00 -2.164956277626099712e-01 -5.723363050077713288e-01 2.660819232925968336e-01 3.484004189228199766e-01 1.023221924300988933e-01 -1.132252124873664445e-01 -6.193941776909164809e-02 -3.390354327754371844e-01 -9.190768197309562293e-02 -1.516194959649820040e-01 2.118599801884808009e+00 8.297469257853606894e-01 1.474070005488080870e+00 1.176762034325957496e+00 -4.884828607914544762e-01 -1.251405787025712257e+00 6.721167048546001777e-01 -1.778622316911808166e-01 -7.600957412003069846e-01 -1.020871936013401510e-01 -4.892120256474279949e-01 7.405568998516302015e-01 7.421072750566796161e-01 5.540192518803870314e-01 -9.158459715009976687e-01 -6.011470585694648205e-01 -9.920035897409401615e-01 -2.560201681890476033e-01 3.022264915058372470e-01 -4.355854986129393258e-01 -1.521393730237896036e-01 4.451350899671587813e-01 -8.001720403647273328e-01 -7.622806646650681639e-01 -7.624611561068500576e-01 1.635092025706571306e+00 3.552333826789380034e-01 2.851183710839492180e-01 -2.509062440052280407e-01 2.660371860976252778e-01 -9.012945560607036333e-01 -5.782817239533039055e-01 7.573672865276729338e-01 6.071819519049406200e-01 -4.016608208674262714e-01 -3.477386169696197737e-01 -5.077321959243957794e-01 -8.803045840889257845e-02 4.759816430103748774e-01 -1.546916042858863083e+00 -2.150244425348666055e-01 8.628447367548472968e-01 -5.860197160214904999e-01 4.871201761170331213e-01 7.044586114952569034e-01 4.358559786652962398e-01 -4.712029906785262234e-01 -8.817078921932639535e-01 1.723806397555833758e-01 9.081378042294587782e-01 3.601020236213616776e-01 -4.608255041070166147e-01 5.091607008396949879e-02 5.044967197087504851e-02 -3.531667299595040669e-03 -1.815065133091525729e-01 6.631862351411367262e-01 -1.958969776916754391e-01 6.077882180299001152e-02 -3.016716474440633844e-01 1.157173827796622367e+00 5.023853297943450258e-01 1.482431232962078405e-01 -6.081774830482160610e-01 6.393289689261233422e-01 6.753686361304649388e-01 1.137536256086628894e+00 -1.646419792005752836e+00 -7.842661677801213704e-01 -2.004385743122379937e-01 -4.653182497675527329e-02 -9.618435212412533852e-01 8.434457634180356767e-01 -1.198340788921211875e+00 1.945810870947529622e-02 -1.476260585379792489e-01 3.362283023461289100e-02 6.564355466861158117e-01 -1.882854838989256541e+00 1.974689501632628463e+00 -7.380161357096238772e-01 -1.032724721577709337e+00 1.434322293307417118e+00 1.139917611832759414e+00 -4.462029719533366467e+00 -2.178912225574703432e-01 1.121323393784804168e+00 -7.881912138630872144e-01 1.501238338351622570e+00 6.770794481726537251e-02 -2.417860268786092559e-01 1.388334513759166944e+00 -1.924599269883421615e-01 9.250314946478623707e-03 4.263763213170093658e-01 5.078967465265901149e-01 1.101715132650826545e+00 -1.016616760284783538e+00 -1.429163117707994424e-01 -2.135712550292382661e-01 -1.296780615580789053e+00 1.821064030982771254e+00 -4.906245897231396591e-01 -8.297078450173396291e-01 -1.058643498305837927e+00 -1.595189533115718705e-01 2.073646120027222012e-02 1.305811872538096274e-01 3.818484141426014000e-01 4.588544964251081160e-01 -4.177219880828531712e-02 1.160955920543931819e-01 -3.274454139540084602e-02 1.435362561645664448e+00 6.034075724671089658e-01 -9.065421776088059547e-01 -1.009106567956509437e+00 1.163605185239259709e+00 -4.460236632190080486e-01 -5.452877855514522976e-01 -5.963370387790728477e-01 8.072492589209777358e-02 3.221437992395610045e-02 5.275615719300719153e-01 2.894177697869070309e-01 -5.281961201897836800e-01 -7.263572113235262917e-02 3.817275722941149696e-01 -5.071243871375405998e-01 -1.586602048563703904e-01 -2.141878055668350045e-01 1.953602341961429456e+00 -1.828869900174363350e+00 -2.336824239411721543e-02 -2.767478876385782716e-01 -4.446609785445865271e-01 7.818210486756407840e-02 -2.623764494194340546e-01 6.231119928592437907e-01 5.757486731207754893e-01 -2.102561260377182606e+00 -7.498529804343440075e-01 7.869216031230318320e-01 1.156297081619305778e-01 -1.623343112709898506e-01 2.354585420036068022e-01 8.409893314596540437e-01 2.103815444498282339e-01 -3.503657701777780353e-01 6.555881110848151838e-01 -2.942612139183697351e-01 1.736507647162705836e-01 -7.267948130812368346e-01 1.008018477099499766e+00 -6.846904277447717346e-01 6.231531305097923745e-01 4.352245157293756495e-01 -2.269636171653263701e-01 5.128435490050560208e-01 1.331208715324890157e+00 -1.867891018602212683e-01 3.387690664881351510e-01
2.339678163918528508e-01 7.886452706810170854e-01 9.636803173382472998e-02 -1.429677338339851334e+00 -5.470222517427066888e-01 1.173120838031776803e+00 -3.758258621022902424e-01 -3.666588508981724615e-01 -1.690663849391375706e+00 2.116423620170788222e+00 -1.588294348663145783e+00 -1.210501078423369958e-01 1.206519468070899936e+00 3.196097199657689236e-01 -8.136363933892755140e-01 9.452043700356191347e-02 1.755214993749669716e-01 -8.449107779981965827e-01 -2.562151606526478442e+00 5.431013194247956699e-01 5.147348524890268343e-04 6.037567282761400339e-02 5.446522088504768960e-02 8.945896332419178698e-02 6.605899351708899303e-01 7.133448582343806521e-01 -1.603326560394226608e+00 2.990943736371952100e-01 -1.774817084236064990e-01 -4.442028079616017200e-01 -1.638877717998303563e-01 -7.688981699764381172e-01 5.872111652255036507e-01 -1.448198537058082991e+00 5.053467264132104342e-01 1.334446248423062809e+00 -1.170843354853281282e+00 -7.738043490249872924e-01 9.149291161143963125e-01 -2.219749571274272082e+00 1.015285957289537189e+00 1.011374795163631601e+00 -3.739253026469461227e-01 4.524735326043924921e-01 5.835889950947018012e-02 -6.966455432148190852e-01 3.127880690635516658e-01 -5.864809719282665368e-01 8.519273185198878995e-01 -1.194282559694594958e-01 -2.442717694130068229e-01 2.142860217075197304e-01 2.586375512052005790e-02 -1.233184893156485273e+00 -7.200734352022317708e-01 -2.995746557073498614e-02 -1.717069593057872989e+00 1.715787126802021278e+00 -8.810759150367114545e-02 -8.456409712954340296e-01 7.663280952584159422e-01 1.959744193188331263e+00 -2.756669958704144885e-01 8.562858525955092670e-01 -3.103424357384389556e-02 -4.948705094803843019e-02 -1.126343215592993774e+00 4.379529704020097003e-01 7.115132043437054632e-01 4.387890931494095592e-01 1.105935855597110162e+00 1.140623122539667467e+00 -6.952725741277603067e-02 -9.285179105318538961e-02 -1.667098146274625103e-01 -2.376219710459562595e+00 -2.089189467066368433e+00 -6.742342654165880411e-01 -5.508408541548779347e-01 4.000492534071859452e-01 7.869977077765466511e-01 7.256321602326076814e-02 -3.145487605070305948e-02 -1.907953948030204905e-01 -6.940898666744889367e-02 -3.609314615005473383e-03 6.299464992772573213e-01 1.710361584915295996e+00 -6.406474306262051055e-01 -6.553366571958370024e-01 -3.725003972760698723e-01 1.391796761273461192e+00 -1.559050107108796712e-01 -7.001674403224088516e-01 4.435908854096917708e-01 5.830521487550428539e-01 -7.308458432190074738e-01 2.692227829119804294e-01 -7.194831099168595978e-01 3.230899652021781976e-02 9.349060734414156304e-01 -6.689177383038167335e-01 -2.697452310739472670e-01 1.194575665454753466e-01 8.234826900480767264e-01 7.667883227239280508e-01 8.654544064615224963e-01 -4.988876010564525232e-01 -1.568522051147605845e-01 -7.885203150674758854e-01 -1.312339903459523116e+00 2.790964875304594806e+00 9.256501020679865910e-01 -9.168080783032025449e-01 1.090620822518508087e-01 -1.202628360549636621e+00 2.541813152095263595e-01 7.963601228207702887e-01 -2.002308291769676896e-01 1.210493365113892272e+00 -2.033428924409672878e-01 -7.797384551166191002e-01 -4.553300282143590838e-01 -9.522893019013471960e-01 -6.778482080172802959e-01 2.308516393627983998e-01 9.667759255420273201e-02 -2.649742920515764655e-01 4.162163500727752985e-01 9.300297191895140481e-02 -1.360334686133912174e-01 3.430823491481531096e-01 -7.575020123332194544e-01 -1.470154729597120458e+00 -1.762048985947051449e-01 5.015538350326319561e-01 -9.348834477336138704e-01 2.664845580473409678e-02 -1.502208158463305410e-01 -7.590462168906865204e-01 -5.016325107893060409e-02 2.528897472484906928e+00 6.706228939190551630e-01 -1.291674404706447232e+00 7.850405840516984091e-01 -3.494993084130987304e-01 -6.701549531440650354e-01 -2.700435818845508429e+00 -2.111081382026423814e+00 1.005453030367164269e+00 1.718434848835453943e+00 1.121638611032132610e-01 1.249174069483452332e+00 1.180527157792415627e-01 7.100013956860453668e-01 -5.178453730911307673e-01 4.844225746823103140e-01 1.413111720684572692e+00 4.467096335419054598e-01 2.644328177262308954e-01 -4.034960743025244878e-01 3.092085792451939597e-01 4.717994866114805785e-01 1.613947787545236157e+00 8.210046608231569634e-03 -1.607280402832576227e+00 -5.694602690137942069e-01 -1.671803265056118204e-01 -2.926527317819204721e-01 1.460828824217758615e-01 1.835340852605653883e-01 -5.683603510822516913e-01 5.913074467788778099e-01 9.792540033946735001e-01 2.597400402399023256e-01 -1.712352132981215469e+00 -6.964398549620762213e-02 5.463054281818977564e-01 1.096600694246375074e+00 -5.051333248509897178e-01 -4.286090673005331086e-01 7.861312460118674572e-01 8.485504316304819383e-01 1.298301680209822395e+00 5.684282282056567492e-01 1.125388307879635175e+00 -2.480626039110578607e-01 2.561806050261870582e-01 -6.280166292458975175e-01 5.317493847559168207e-01 -2.015717108965984217e+00 2.383303099663395486e+00
-1.889616840298178058e-01 4.365013255582769758e-01 8.398508469807222099e-01 -2.335600394307901340e+00 -3.230745385832224925e-01 -1.698422410284836426e+00 1.601330870121988825e+00 2.948734964247220702e+00 3.208834444708790756e-01 8.568818343078316024e-02 1.356825644542118736e+00 1.127788689789144261e-02 2.853708534141911612e-01 -3.776796274801353520e-02 2.424488572730731650e-01 3.220203862879152945e-01 -1.804914417818665254e-02 5.637755599286131680e-01 -3.311493451652756104e-01 3.144073498332699002e-01 -2.762917739381209326e-01 -6.967175341032790480e-03 -2.100796969389280566e-02 7.201726797841800920e-01 5.600428323619618953e-02 -4.672224087673198523e-01 2.419207526841558042e-01 1.185921332220597479e-01 1.468434147362926434e-01 -2.566043228268373166e-01 9.067704915693505230e-01 2.611932277455307205e-01 9.229596997221097832e-01 9.201073178771981276e-01 9.420306002957965497e-01 -3.346018224875647040e-01 7.842738810895992507e-02 7.183970759423773111e-02 8.218017028025355331e-02 -6.035767510549899101e-02 -8.901318545843480701e-01 -1.030014778847822138e-01 6.693121455284511967e-01 2.465687929755127905e-01 2.125775236581742611e+00 1.283783174889967071e+00 -7.271974478359809479e-01 1.687402662144137366e+00 8.162635465974338311e-02 3.099644835740240079e-01 -3.087658352811648577e-01 9.373727898124344093e-03 5.903000885610696358e-01 1.791909778038997259e-01 -1.167735919574968584e+00 1.476327434061933674e-01 1.952418606066894380e-01 -2.500531519769769728e-01 3.856557037008718769e-01 3.609900826525790363e-01 -2.950885949150278686e-01 -1.680791841700981504e-01 -1.090111744092969459e-01 -5.054146035366156031e-01 -3.064965796327792091e-01 -3.106355414985976365e-02 -4.416795273210787076e-02 -3.751501761920298939e-01 -1.877733201495959126e-01 -1.484276770809813684e+00 -1.134237016512633228e-01 4.952993694873530917e-01 -2.931864927977882451e-01 4.442496020391007439e-01 1.489658603942830783e+00 -5.133654829463910607e-01 5.142777103473057387e-01 -5.135840267149303084e-01 -3.274711249856013251e-02 -8.683438121919280495e-02 -2.848941708884595303e-01 -1.269647763940845442e+00 -2.895956901255296034e-01 -4.444264939364596656e-01 1.144447381378789430e+00 -1.765525117418406120e-01 -1.859235142706160859e+00 6.262363974184078641e-01 2.942442446375184151e-01 7.873880012361262892e-01 -9.451169525282034078e-02 -8.546233772927149808e-01 -6.642820393076243057e-01 8.065643170393439476e-01 -7.874774756260694009e-02 7.573138075819597637e-01 2.930306839463355240e-01 -3.667575812594890405e-01 1.235349762016604069e+00 -2.105579221265552192e-02 -1.802672415863768030e-01 -8.251266534081239667e-01 4.714487881405539094e-01 -1.814782311744004284e+00 -1.405842697832639709e+00 5.118819564234831088e-01 -2.051154109589789498e-01 -8.718662235201495025e-02 -1.842169702596717085e-01 -6.285899852504182039e-01 -1.367571313086037854e+00 -1.771068415829826215e-01 -1.061798756102913632e+00 -4.794521180547789418e-01 5.562761662336082047e-01 -8.376828927968122951e-01 -8.368647677715276290e-01 -8.021620742100147305e-01 -3.805491842941510772e+00 -1.484707687699310164e+00 1.247360413314892030e-01 2.797031136098613313e-01 -9.422028642074687932e-01 -7.867683653747384875e-01 3.392390641456526357e-01 -2.474882194652734124e-01 1.074929379937386464e+00 -5.405281593829823483e-02 -1.875339504454664130e+00 -1.311339230109929144e+00 -2.994615271683412350e-02 -6.125247042699365485e-01 7.020145208320397456e-01 -2.330345059450321041e-02 -1.839068952186618255e-01 5.522529040099576347e-01 2.470809567248425376e-01 4.648143135483327748e-02 -3.025134266184135168e-01 3.088409114934160139e-03 -1.002877813442823562e+00 -3.585706745796910511e-01 -1.004643132871989364e+00 -8.002913395513182593e-01 -4.272047307549312056e-01 1.406722015113115676e+00 -4.571549972368202375e-01 -9.203618570899674278e-01 1.200808019512862312e-01 3.972601206999926138e-01 7.167669965393901055e-02 6.690987439662304803e-01 1.371319467271644887e+00 1.069882304435708420e+00 -8.595573242553845583e-01 6.619690749055308077e-01 1.061204317052486967e+00 1.188835934761963697e+00 -3.487351765541589765e-01 7.090171773966706947e-01 -7.221472870105116737e-01 -1.785268104357930374e+00 -3.247478125192857501e-01 1.622998070665922388e+00 1.217923853244228249e+00 -8.652502608706752474e-01 -2.273364271234228073e-01 -5.779166273046854041e-01 -1.019205861166184446e-01 4.855230068344846828e-01 -4.051960877114443305e-01 1.113729897714169220e-01 1.193395529104641195e+00 -1.539273181607569985e-01 3.954588058265969819e-01 5.372669721357441475e-01 4.698871000816036703e-01 -4.526586520318610640e-01 8.663537783466406239e-01 -3.156800458971164430e-02 -1.181529373803905214e+00 3.910930726621296150e-01 2.598523974479631349e+00 2.288333233827590518e-01 -4.373477327183138419e-01 2.873814560847526511e+00 -1.350703333699227425e-02 -1.313690761059411960e+00 4.214881399905749948e-01 1.741593289211773310e-01 -2.552781478172777008e-01 -3.354600567221342478e-01