1.049800000000000066e+00 1.831550000000000011e+00 3.460869999999999891e+00 4.077560000000000073e+00 4.947820000000000107e+00 1.820380000000000109e+00 1.925280000000000102e+00 4.305970000000000297e+00 3.743040000000000145e+00 4.954250000000000043e+00 2.284860000000000113e+00 3.722550000000000026e+00 6.156939999999999635e+00 1.239300000000000068e+00 1.655890000000000084e+00 9.915100000000000691e+00 5.396300000000000097e+00 1.953519999999999923e+00 7.815780000000000172e+00 3.909149999999999903e+00 3.528589999999999893e+00 1.030119999999999969e+01 1.135760000000000103e+00 3.876580000000000137e+00 2.034530000000000172e+00 8.370169999999999888e+00 1.719500000000000028e+00 3.584249999999999936e+00 1.118260000000000076e+01 1.379219999999999891e+00 1.550189999999999957e+00 1.068880000000000052e+01 5.113669999999999938e+00 4.814449999999999896e+00 8.015869999999999607e+00 5.396729999999999805e+00 7.821830000000000283e+00 7.178889999999999993e+00 9.945289999999999964e-01 1.007179999999999964e+01 1.106980000000000075e+01 1.122509999999999897e+00 7.278699999999999726e+00 9.990890000000000271e+00 4.572379999999999889e+00 1.120930000000000071e+01 7.831750000000000433e+00 4.696979999999999933e+00 1.391180000000000083e+00 2.172620000000000218e+00 8.930780000000000385e+00 6.329259999999999664e+00 3.547379999999999978e+00 8.279080000000000439e+00 1.743100000000000094e+00 4.683880000000000265e+00 1.003589999999999982e+01 4.555100000000000371e+00 1.230660000000000087e+00 1.027009999999999934e+01 6.819340000000000401e+00 1.004310000000000036e+00 8.558510000000000062e+00 1.029780000000000051e+01 4.854890000000000150e+00 7.490149999999999864e+00 7.136110000000000397e+00 3.038920000000000066e+00 1.049660000000000082e+01 9.964829999999999188e+00 1.328899999999999970e+00 1.010479999999999912e+01 1.293840000000000101e+00 7.918090000000000295e+00 7.359989999999999810e+00 5.165160000000000196e+00 9.879260000000000375e+00 7.327729999999999855e+00 9.840400000000000258e-01 9.533480000000000842e+00 1.135139999999999993e+01 5.088020000000000209e+00 7.551870000000000083e+00 1.091060000000000052e+01 7.774160000000000181e+00 8.464180000000000703e+00 6.844759999999999955e+00 2.051590000000000080e-01 1.145379999999999932e+01 7.628800000000000026e+00 7.866060000000000052e+00 9.426099999999999923e+00 1.153679999999999950e+01 1.097240000000000038e+01 6.465629999999999988e+00 1.056620000000000026e+01 3.470810000000000173e+00 2.127920000000000034e+00 1.205940000000000012e+00 8.947260000000000213e-01 5.164039999999999964e+00 9.854960000000000386e-01 5.724940000000000140e+00 5.056250000000000355e+00 4.620750000000000135e+00 1.996550000000000047e+00 8.722159999999999913e-01 6.126059999999999839e+00 9.957549999999999457e+00 1.651950000000000029e+00 1.524520000000000097e+00 6.977570000000000050e+00 4.390349999999999753e+00 1.044170000000000043e+00 1.096620000000000061e+01 4.855240000000000222e+00 4.609930000000000305e+00 7.335670000000000357e+00 1.079820000000000002e+00 4.769319999999999560e+00 4.415689999999999671e+00 7.586689999999999934e+00 2.151870000000000172e+00 1.096629999999999994e+00 1.191159999999999997e+01 2.354350000000000165e+00 4.593619999999999592e+00 1.093950000000000067e+01 4.507690000000000197e+00 2.212470000000000159e+00 7.134199999999999875e+00 4.901909999999999989e+00 1.087020000000000053e+01 7.983780000000000321e+00 1.489729999999999999e+00 7.286749999999999616e+00 1.060399999999999920e+01 2.214770000000000127e+00 1.032269999999999932e+01 1.103560000000000052e+01 5.344899999999999984e+00 8.098359999999999559e+00 7.689280000000000115e+00 4.345159999999999911e+00 4.752860000000000085e+00 2.822490000000000165e+00 6.487759999999999749e+00 1.933939999999999992e+00 4.951660000000000394e+00 7.660519999999999996e+00 4.280730000000000146e+00 5.010519999999999641e+00 1.069919999999999938e+01 1.408519999999999994e+00 5.189460000000000184e-01 1.075910000000000011e+01 1.003470000000000084e+01 2.003540000000000099e+00 7.594990000000000130e+00 7.803819999999999979e+00 5.037029999999999674e+00 6.795650000000000190e+00 1.015060000000000073e+01 3.961829999999999963e+00 1.082220000000000049e+01 7.256990000000000052e+00 2.673039999999999861e-01 1.141009999999999991e+01 4.506450000000000067e+00 6.927509999999999835e+00 7.555290000000000283e+00 2.811459999999999848e+00 1.054139999999999944e+01 8.318220000000000169e+00 4.296369999999999578e+00 1.001089999999999947e+01 1.063809999999999967e+01 2.123479999999999812e+00 7.135360000000000369e+00 1.044800000000000040e+01 1.063760000000000083e+01 7.638340000000000352e+00 7.842240000000000322e+00 8.242179999999999396e+00 1.095979999999999954e+01 7.309190000000000076e+00 1.033810000000000073e+01 1.009549999999999947e+01 9.823740000000000805e+00 7.795819999999999972e+00 6.969669999999999810e+00 1.032310000000000016e+01
8.172799999999999510e-02 7.674520000000000231e-01 1.154130000000000100e+00 4.036310000000000286e+00 4.546870000000000189e+00 8.338680000000000536e-01 2.368160000000000043e+00 4.340029999999999610e+00 4.500890000000000057e+00 4.936519999999999797e+00 2.453590000000000160e+00 4.649939999999999962e+00 6.914769999999999861e+00 1.720960000000000045e+00 1.658309999999999951e+00 9.724309999999999121e+00 4.237000000000000099e+00 1.341930000000000067e+00 9.942270000000000607e+00 3.586790000000000145e+00 3.990110000000000046e+00 1.097959999999999958e+01 1.187340000000000062e+00 3.858119999999999994e+00 1.621420000000000083e+00 6.539649999999999963e+00 3.566030000000000033e+00 4.065240000000000187e+00 1.109600000000000009e+01 1.235600000000000032e+00 7.038360000000000172e-01 1.064680000000000071e+01 4.570479999999999876e+00 6.960569999999999702e+00 8.562699999999999534e+00 3.907070000000000043e+00 7.262059999999999960e+00 7.729359999999999786e+00 -2.778510000000000146e-01 1.099569999999999936e+01 1.036289999999999978e+01 2.111289999999999889e+00 6.717109999999999914e+00 1.111190000000000033e+01 5.125650000000000261e+00 1.162440000000000001e-01 8.087429999999999453e+00 4.941709999999999603e+00 7.967589999999999950e-01 1.934760000000000035e+00 7.521399999999999864e+00 4.897000000000000242e+00 4.550779999999999603e+00 7.186720000000000219e+00 1.075880000000000031e-01 4.779620000000000424e+00 1.100880000000000081e+01 3.829689999999999817e+00 9.101019999999999666e-01 1.064220000000000077e+01 7.189879999999999605e+00 1.087339999999999973e+00 7.802430000000000199e+00 1.104410000000000025e+01 4.668999999999999595e+00 8.343329999999999913e+00 7.043129999999999669e+00 5.110859999999999737e+00 1.041350000000000087e+01 8.330189999999999984e+00 1.199130000000000074e+01 1.162969999999999970e+01 2.510390000000000121e+00 7.037989999999999746e+00 8.302369999999999806e+00 3.384189999999999809e+00 1.069919999999999938e+01 7.375989999999999824e+00 1.666060000000000096e+00 1.091019999999999968e+01 1.094860000000000078e+01 4.605590000000000295e+00 7.105080000000000062e+00 1.146090000000000053e+01 8.514609999999999346e+00 8.595370000000000843e+00 5.666150000000000020e+00 1.070919999999999916e+01 1.194899999999999984e+01 8.868660000000000210e+00 7.221180000000000376e+00 8.468469999999999942e+00 9.224099999999999966e+00 1.153430000000000000e+01 6.962710000000000399e+00 1.046969999999999956e+00 4.038529999999999731e+00 1.547860000000000014e+00 1.360950000000000104e+00 5.459549999999999681e-01 3.601399999999999935e+00 1.782859999999999889e+00 5.105509999999999771e+00 5.200000000000000178e+00 4.522280000000000300e+00 1.727000000000000091e+00 1.900779999999999914e+00 4.384109999999999729e+00 9.633459999999999468e+00 9.109599999999999920e-01 1.545930000000000026e+00 6.888969999999999594e+00 4.922390000000000043e+00 1.157559999999999922e+00 1.139439999999999920e+01 5.519050000000000011e+00 5.024879999999999569e+00 7.482639999999999958e+00 1.653899999999999926e+00 4.547010000000000218e+00 3.785340000000000149e+00 7.871000000000000441e+00 1.988059999999999938e+00 1.203189999999999982e+00 9.851900000000000546e+00 1.797679999999999945e+00 3.771009999999999973e+00 1.122109999999999985e+01 3.883999999999999897e+00 2.926649999999999974e+00 8.055110000000000881e+00 5.628809999999999647e+00 9.319319999999999382e+00 8.363080000000000069e+00 3.096239999999999881e+00 7.536059999999999981e+00 1.058099999999999952e+01 1.820899999999999963e+00 1.014789999999999992e+01 1.097220000000000084e+01 5.120199999999999640e+00 8.396300000000000097e+00 5.799080000000000013e+00 4.164839999999999876e+00 4.465900000000000425e+00 1.728900000000000103e+00 7.766070000000000029e+00 2.025920000000000165e+00 4.822639999999999816e+00 7.388419999999999987e+00 4.093320000000000292e+00 4.226880000000000415e+00 1.017609999999999992e+01 9.471840000000000259e-01 1.613499999999999934e+00 1.023629999999999995e+01 1.028630000000000067e+01 2.539620000000000211e+00 7.302769999999999762e+00 7.556090000000000195e+00 4.554619999999999891e+00 7.372340000000000337e+00 9.557809999999999917e+00 4.272979999999999556e+00 1.040160000000000018e+01 7.515049999999999564e+00 2.111019999999999897e+00 1.064310000000000045e+01 5.244989999999999597e+00 7.971000000000000085e+00 7.846250000000000391e+00 6.105410000000000004e-01 1.021879999999999988e+01 7.881969999999999921e+00 5.662049999999999805e+00 9.534119999999999706e+00 1.103659999999999997e+01 1.906360000000000054e+00 7.082189999999999763e+00 1.078020000000000067e+01 1.060019999999999918e+01 8.001780000000000115e+00 7.120049999999999990e+00 8.307159999999999656e+00 1.074319999999999986e+01 7.856169999999999654e+00 1.075150000000000006e+01 1.050309999999999988e+01 1.114910000000000068e+01 1.036379999999999946e+01 7.462369999999999948e+00 9.799210000000000420e+00
1.120599999999999952e+01 4.127159999999999940e+00 2.407020000000000159e+00 2.842930000000000179e-01 6.404359999999999609e+00 3.745120000000000005e+00 1.194139999999999979e+01 3.638630000000000031e+00 4.956730000000000302e+00 4.273789999999999978e+00 3.155269999999999797e+00 3.775389999999999802e+00 6.381969999999999921e+00 2.907729999999999926e+00 2.112680000000000113e+00 8.022330000000000183e+00 5.230059999999999931e+00 6.039050000000000251e-01 7.947110000000000340e+00 1.232159999999999922e+00 4.371850000000000236e+00 1.123220000000000063e+01 1.586140000000000105e+00 3.508080000000000087e+00 1.913019999999999943e+00 8.202389999999999404e+00 2.404099999999999987e-02 3.307529999999999859e+00 1.036669999999999980e+01 5.124140000000000361e-01 1.624759999999999982e+00 1.127159999999999940e+01 5.578870000000000218e+00 6.510089999999999932e+00 7.039570000000000327e+00 3.276370000000000005e+00 7.851729999999999876e+00 1.091189999999999927e+01 3.431210000000000093e-01 1.049050000000000082e+01 1.161509999999999998e+01 2.430769999999999875e-01 7.645120000000000360e+00 9.829380000000000450e+00 4.748359999999999914e+00 1.147289999999999921e+01 7.624249999999999972e+00 6.043599999999999639e+00 1.283409999999999940e+00 1.416479999999999961e+00 6.946629999999999860e+00 5.114390000000000214e+00 5.565360000000000085e+00 7.478539999999999743e+00 3.005170000000000119e+00 3.641270000000000007e+00 1.207409999999999961e+01 4.466739999999999711e+00 1.241450000000000031e+01 1.087509999999999977e+01 8.529339999999999478e+00 1.627569999999999961e+00 8.790800000000000836e+00 1.111139999999999972e+01 5.294640000000000235e+00 7.322829999999999728e+00 6.436499999999999666e+00 3.766550000000000065e+00 1.050440000000000040e+01 8.928670000000000329e+00 3.504500000000000171e+00 1.093239999999999945e+01 2.923589999999999911e+00 9.148450000000000415e+00 1.002139999999999986e+01 5.948050000000000281e+00 9.662240000000000606e+00 6.854890000000000150e+00 1.682269999999999932e+00 1.241150000000000020e+01 1.121499999999999986e+01 6.997679999999999900e+00 8.077249999999999375e+00 4.298150000000000026e-01 9.030290000000000816e+00 5.969859999999999722e+00 8.179320000000000590e+00 1.108729999999999993e+00 1.070720000000000027e+01 8.646539999999999893e+00 9.012999999999999901e+00 1.041169999999999973e+01 1.009079999999999977e+01 1.176609999999999978e+01 3.919470000000000010e+00 1.185870000000000068e+01 1.693999999999999950e+00 4.854169999999999874e+00 1.994490000000000096e+00 1.102040000000000042e+01 6.869670000000000165e+00 1.032659999999999911e+00 4.687730000000000175e+00 5.693159999999999776e+00 4.655219999999999914e+00 1.970790000000000042e+00 1.361830000000000096e+00 3.632350000000000190e+00 9.351060000000000372e+00 2.078860000000000152e+00 1.011779999999999902e+00 5.349809999999999732e+00 5.212469999999999715e+00 4.929220000000000268e-01 7.960650000000000226e+00 4.946049999999999613e+00 3.532620000000000093e+00 7.756350000000000300e+00 1.192149999999999999e+01 6.481910000000000061e+00 3.788749999999999840e+00 7.489289999999999559e+00 2.499120000000000008e+00 7.450639999999999485e-01 1.093790000000000084e+01 1.109860000000000069e+00 4.227079999999999949e+00 1.022419999999999973e+01 4.795510000000000161e+00 3.511120000000000019e+00 8.079969999999999430e+00 7.534650000000000070e+00 7.324580000000000535e-01 9.122749999999999915e+00 3.748289999999999900e+00 5.992409999999999570e+00 1.073279999999999923e+01 2.648219999999999796e+00 9.903560000000000585e+00 1.140349999999999930e+01 3.399640000000000217e+00 9.191039999999999210e+00 8.740069999999999339e+00 2.728380000000000027e+00 5.712419999999999831e+00 2.057980000000000143e+00 6.230520000000000280e+00 1.879890000000000061e+00 4.843930000000000291e+00 6.638989999999999725e+00 3.946969999999999867e+00 2.294719999999999871e+00 9.578599999999999781e+00 1.134869999999999912e+01 8.236809999999999965e-01 1.032019999999999982e+01 1.101190000000000069e+01 5.521350000000000424e-01 6.137819999999999609e+00 8.455999999999999517e+00 3.644940000000000069e+00 6.780269999999999797e+00 6.723700000000000510e-02 3.344800000000000217e+00 9.144949999999999690e+00 6.420499999999999652e+00 1.355520000000000058e+00 -1.148259999999999975e-01 5.369670000000000165e+00 6.310340000000000060e+00 9.970280000000000697e+00 3.651629999999999932e+00 1.185759999999999970e+01 7.813489999999999824e+00 5.602149999999999963e+00 9.639279999999999404e+00 1.063860000000000028e+01 2.740079999999999849e+00 5.865339999999999776e+00 1.118319999999999936e+01 2.037829999999999919e-01 6.985179999999999723e+00 9.239330000000000709e+00 9.709970000000000212e+00 9.520569999999999311e+00 7.375379999999999825e+00 1.062870000000000026e+01 8.886499999999999844e+00 1.123509999999999920e+01 8.345959999999999823e+00 6.849319999999999631e+00 1.050590000000000046e+01
8.052550000000000541e-01 1.884169999999999900e+00 7.903699999999999615e-02 3.751300000000000079e+00 3.267370000000000108e+00 2.327510000000000190e+00 1.801949999999999941e+00 5.288719999999999644e+00 3.511190000000000033e+00 5.653129999999999988e+00 2.343739999999999934e+00 4.095500000000000362e+00 5.215589999999999726e+00 1.476259999999999906e+00 8.882759999999999545e-01 9.975789999999999935e+00 6.390900000000000247e+00 3.137849999999999806e+00 8.193390000000000839e+00 5.718280000000000030e+00 4.409159999999999968e+00 1.109249999999999936e+01 3.212499999999999800e-01 4.298919999999999852e+00 1.672590000000000021e+00 9.070800000000000196e+00 2.243290000000000006e+00 3.796640000000000015e+00 1.052580000000000027e+01 1.531670000000000087e+00 9.371669999999999723e-01 1.060440000000000005e+01 5.437610000000000277e+00 5.210930000000000284e+00 6.924859999999999793e+00 4.260830000000000339e+00 7.722629999999999661e+00 6.374390000000000001e+00 5.358119999999999550e-01 9.882279999999999731e+00 1.164520000000000088e+01 6.209280000000000355e-01 7.608660000000000423e+00 1.203640000000000043e+01 5.252889999999999837e+00 1.192409999999999926e+01 7.887279999999999625e+00 2.956329999999999902e+00 2.830080000000000151e+00 2.291080000000000005e+00 7.155590000000000117e+00 4.862720000000000375e+00 3.275679999999999925e+00 8.261630000000000251e+00 9.960700000000000109e-01 3.439970000000000194e+00 9.452529999999999433e+00 4.625090000000000146e+00 1.181329999999999991e+01 9.484759999999999636e+00 8.756449999999999179e+00 1.086219999999999963e+00 8.306670000000000442e+00 1.023210000000000086e+01 4.467950000000000088e+00 8.290029999999999788e+00 6.086319999999999730e+00 4.854149999999999743e+00 1.107600000000000051e+01 9.207470000000000709e+00 8.941379999999999884e-01 1.082189999999999941e+01 2.301810000000000134e+00 8.105090000000000572e+00 8.799469999999999459e+00 5.689259999999999984e+00 9.537369999999999237e+00 1.007039999999999935e+01 1.851509999999999989e+00 8.880919999999999703e+00 1.159900000000000020e+01 4.121050000000000324e+00 7.392990000000000173e+00 1.051030000000000086e+01 8.418309999999999960e+00 6.421540000000000248e+00 7.634689999999999976e+00 1.058820000000000050e+01 1.051870000000000083e+01 8.335440000000000182e+00 5.874769999999999825e+00 8.852320000000000633e+00 1.160700000000000065e+00 1.150810000000000066e+01 7.012159999999999727e+00 6.024350000000000538e-01 2.979810000000000070e+00 7.936609999999999498e-01 1.109329999999999927e+01 1.920330000000000092e+00 4.591569999999999929e+00 8.990110000000000046e-01 4.281780000000000364e+00 4.707720000000000127e+00 5.173639999999999795e+00 2.601010000000000044e+00 1.983899999999999997e+00 4.595259999999999678e+00 1.052849999999999930e+01 4.491970000000000240e+00 1.257309999999999928e+00 6.519949999999999690e+00 4.254920000000000258e+00 1.595339999999999980e+00 1.095240000000000080e+01 4.414640000000000342e+00 4.840919999999999668e+00 8.564439999999999387e+00 2.055089999999999861e+00 3.808800000000000185e+00 3.527950000000000141e+00 7.022470000000000212e+00 1.689559999999999951e+00 1.391999999999999904e+00 1.199810000000000088e+01 2.469219999999999970e+00 4.158839999999999648e+00 1.120770000000000088e+01 4.042370000000000019e+00 2.124890000000000168e+00 8.046810000000000684e+00 4.816040000000000099e+00 9.414059999999999206e+00 9.208349999999999369e+00 2.191570000000000018e+00 6.964780000000000193e+00 1.103030000000000044e+01 2.643219999999999903e+00 9.913719999999999644e+00 1.064460000000000051e+01 5.624609999999999665e+00 7.557549999999999990e+00 8.428229999999999222e+00 5.375490000000000101e+00 5.541590000000000238e+00 9.750130000000000186e-01 6.559969999999999857e+00 1.290499999999999980e+00 4.947549999999999670e+00 6.567910000000000359e+00 3.822379999999999889e+00 4.338849999999999874e+00 1.111679999999999957e+01 2.685000000000000164e-01 1.161430000000000007e+01 1.067350000000000065e+01 1.081220000000000070e+01 2.114829999999999988e+00 6.729800000000000004e+00 7.384830000000000005e+00 4.295860000000000234e+00 6.633479999999999599e+00 1.061260000000000048e+01 3.525300000000000100e+00 1.059179999999999922e+01 6.759730000000000238e+00 2.112680000000000113e+00 1.044340000000000046e+01 4.690220000000000056e+00 7.391149999999999665e+00 7.640380000000000393e+00 2.331599999999999895e+00 1.115830000000000055e+01 8.010839999999999961e+00 7.747959999999999958e+00 1.075409999999999933e+01 1.131639999999999979e+01 6.497979999999999867e-01 6.672950000000000159e+00 1.038959999999999972e+01 1.156910000000000061e+01 8.232359999999999900e+00 6.933880000000000265e+00 7.048339999999999606e+00 1.007419999999999938e+01 7.821130000000000138e+00 1.068570000000000064e+01 9.108000000000000540e+00 1.125290000000000035e+01 8.903999999999999915e+00 6.322930000000000383e+00 1.016039999999999921e+01
1.218660000000000032e+01 3.731889999999999930e+00 2.540599999999999969e+00 2.576880000000000059e+00 5.831089999999999662e+00 3.929040000000000088e+00 4.195530000000000093e-01 4.176449999999999996e+00 5.335200000000000387e+00 4.547729999999999606e+00 1.881380000000000052e+00 3.266700000000000159e+00 7.278629999999999711e+00 2.392430000000000057e+00 3.170220000000000038e+00 9.302979999999999805e+00 4.441819999999999879e+00 2.189949999999999952e-01 7.695899999999999963e+00 3.661360000000000170e+00 5.269350000000000200e+00 9.115349999999999397e+00 1.825970000000000093e+00 4.071769999999999889e+00 2.181270000000000042e+00 8.204309999999999548e+00 5.400599999999999845e-01 4.427120000000000388e+00 1.099680000000000035e+01 1.911650000000000071e+00 1.550669999999999993e+00 1.089540000000000042e+01 5.350130000000000052e+00 6.181610000000000049e+00 7.996959999999999624e+00 4.217979999999999841e+00 8.428580000000000183e+00 9.851150000000000517e+00 1.272929999999999895e+00 1.129030000000000022e+01 1.191740000000000066e+01 1.031029999999999891e+00 8.064450000000000784e+00 9.674609999999999488e+00 4.717060000000000031e+00 1.015670000000000073e+01 8.782799999999999940e+00 5.752279999999999838e+00 2.533679999999999932e+00 2.044929999999999914e+00 8.201629999999999754e+00 5.134920000000000151e+00 4.744419999999999860e+00 6.843219999999999636e+00 1.774340000000000028e+00 2.321229999999999905e+00 1.144400000000000084e+01 4.281049999999999578e+00 6.555039999999999756e-01 1.046160000000000068e+01 7.466160000000000352e+00 1.087150000000000061e+00 8.059870000000000090e+00 1.067060000000000031e+01 4.878940000000000055e+00 7.387480000000000047e+00 6.723519999999999719e+00 3.831920000000000215e+00 9.987759999999999749e+00 1.010859999999999914e+01 2.275240000000000151e+00 1.032910000000000039e+01 2.719320000000000181e+00 8.546490000000000364e+00 8.262219999999999231e+00 4.949959999999999916e+00 1.052369999999999983e+01 7.228729999999999656e+00 2.178020000000000067e+00 1.039889999999999937e+01 1.145240000000000080e+01 5.525380000000000180e+00 6.887819999999999609e+00 1.163620000000000054e+01 8.262940000000000396e+00 7.570149999999999935e+00 7.372589999999999755e+00 1.157489999999999952e+01 1.013460000000000072e+01 8.570859999999999701e+00 7.695100000000000051e+00 9.601960000000000051e+00 1.036229999999999940e+01 1.144030000000000058e+01 6.026580000000000048e+00 1.161449999999999960e+01 2.780580000000000052e+00 2.813499999999999890e+00 1.383829999999999893e+00 6.069809999999999928e-01 6.627970000000000361e+00 1.561439999999999939e+00 5.461490000000000400e+00 4.473359999999999559e+00 4.166190000000000282e+00 1.172320000000000029e+00 1.717940000000000023e+00 5.029589999999999783e+00 9.353509999999999991e+00 1.193259999999999987e+00 1.012999999999999901e+00 6.220810000000000173e+00 4.111790000000000056e+00 6.621299999999999963e-01 9.965909999999999158e+00 5.216090000000000337e+00 3.943519999999999914e+00 7.309040000000000425e+00 5.049209999999999532e-01 5.128409999999999691e+00 4.578359999999999985e+00 7.987339999999999662e+00 1.915200000000000014e+00 1.811669999999999892e+00 1.152790000000000070e+01 2.464449999999999807e+00 4.184190000000000076e+00 1.100799999999999912e+01 4.433600000000000207e+00 1.938509999999999955e+00 7.977809999999999846e+00 5.424369999999999692e+00 2.593300000000000050e-01 9.339850000000000207e+00 3.353009999999999824e+00 7.270609999999999573e+00 1.150650000000000084e+01 2.707190000000000207e+00 1.047869999999999990e+01 1.112279999999999980e+01 4.435089999999999755e+00 8.269529999999999603e+00 7.253300000000000303e+00 2.412389999999999812e+00 4.742020000000000124e+00 1.035269999999999913e+00 6.885589999999999655e+00 2.563009999999999788e+00 4.716770000000000351e+00 6.858430000000000248e+00 3.972100000000000186e+00 3.350699999999999790e+00 1.008830000000000027e+01 3.063520000000000132e-01 1.943979999999999875e-01 1.042270000000000074e+01 1.056269999999999953e+01 1.967610000000000081e+00 6.558799999999999741e+00 8.158699999999999619e+00 3.981300000000000061e+00 7.949600000000000222e+00 1.214349999999999952e+01 3.895280000000000076e+00 9.687129999999999797e+00 7.016650000000000276e+00 1.191599999999999993e+00 1.115470000000000006e+01 5.180109999999999992e+00 7.020929999999999893e+00 8.205439999999999401e+00 2.305890000000000217e+00 1.126079999999999970e+01 8.376179999999999737e+00 4.888849999999999696e+00 9.456480000000000885e+00 1.064320000000000022e+01 2.286610000000000031e+00 6.574799999999999756e+00 1.051350000000000051e+01 1.059070000000000000e+01 7.333300000000000374e+00 8.345430000000000348e+00 8.647999999999999687e+00 1.076590000000000025e+01 7.627229999999999954e+00 1.044589999999999996e+01 9.421630000000000393e+00 1.156329999999999991e+01 8.078430000000000888e+00 7.017400000000000304e+00 1.084019999999999939e+01
7.463910000000000267e-01 8.559729999999999839e-01 1.144279999999999964e+00 3.783659999999999801e+00 5.131549999999999834e+00 1.562689999999999912e+00 2.364100000000000090e+00 5.057129999999999903e+00 4.089800000000000324e+00 4.547310000000000407e+00 1.813779999999999948e+00 4.049369999999999692e+00 6.645459999999999923e+00 1.621750000000000025e+00 1.786859999999999893e+00 9.765280000000000626e+00 5.027529999999999610e+00 1.676530000000000076e+00 9.503510000000000346e+00 3.837239999999999984e+00 3.866460000000000008e+00 1.056390000000000029e+01 1.478369999999999962e+00 4.302089999999999748e+00 8.664990000000000192e-01 7.204509999999999970e+00 2.356020000000000003e+00 4.392420000000000435e+00 1.035570000000000057e+01 1.249130000000000074e+00 6.902080000000000437e-01 1.115380000000000038e+01 4.952410000000000423e+00 5.726029999999999731e+00 8.463649999999999451e+00 3.854280000000000150e+00 6.773710000000000342e+00 7.164150000000000240e+00 9.108880000000000310e-01 1.028229999999999933e+01 1.059420000000000073e+01 1.977430000000000021e+00 7.332589999999999719e+00 1.093340000000000067e+01 4.982479999999999798e+00 1.414809999999999957e-01 8.630890000000000839e+00 5.240829999999999878e+00 8.472899999999999876e-01 1.874759999999999982e+00 7.771829999999999572e+00 4.779399999999999871e+00 4.754199999999999982e+00 7.560900000000000176e+00 5.057439999999999714e-01 4.547270000000000145e+00 1.148680000000000057e+01 3.920879999999999921e+00 1.196579999999999977e+00 9.961140000000000327e+00 7.370980000000000310e+00 1.926509999999999945e+00 7.922670000000000101e+00 1.146470000000000056e+01 5.117790000000000283e+00 7.382749999999999702e+00 7.217990000000000350e+00 5.494550000000000267e+00 1.023339999999999961e+01 8.347989999999999355e+00 1.136309999999999931e+01 1.069490000000000052e+01 2.228639999999999954e+00 7.437669999999999781e+00 8.020649999999999835e+00 3.896300000000000097e+00 1.033639999999999937e+01 8.110419999999999519e+00 1.148949999999999916e+00 1.035560000000000080e+01 1.071269999999999989e+01 4.196600000000000108e+00 6.946990000000000443e+00 1.125130000000000052e+01 8.693210000000000548e+00 8.455370000000000275e+00 6.192140000000000200e+00 1.120800000000000018e+01 1.181099999999999994e+01 8.354760000000000630e+00 7.583779999999999966e+00 8.068049999999999500e+00 9.154529999999999390e+00 1.131199999999999939e+01 6.822969999999999757e+00 9.434050000000000491e-01 3.694550000000000001e+00 2.212380000000000013e+00 1.476239999999999997e+00 1.139829999999999899e+00 3.641589999999999883e+00 1.855779999999999985e+00 5.073690000000000033e+00 5.255449999999999733e+00 4.526530000000000165e+00 1.267409999999999926e+00 1.768769999999999953e+00 5.006269999999999776e+00 9.776139999999999830e+00 1.502569999999999961e+00 1.399899999999999922e+00 6.628309999999999924e+00 4.529420000000000002e+00 1.443300000000000027e+00 1.182569999999999943e+01 5.322180000000000355e+00 4.713969999999999771e+00 7.660210000000000186e+00 1.823350000000000026e+00 4.702060000000000350e+00 4.146080000000000432e+00 7.901480000000000281e+00 2.168429999999999858e+00 1.538750000000000062e+00 1.050500000000000078e+01 1.944269999999999943e+00 4.343849999999999767e+00 1.070669999999999966e+01 4.365009999999999835e+00 2.795549999999999979e+00 8.080069999999999197e+00 5.141429999999999723e+00 9.880340000000000344e+00 8.138759999999999550e+00 2.775370000000000115e+00 6.868619999999999948e+00 1.101679999999999993e+01 2.304629999999999956e+00 1.008230000000000004e+01 1.090840000000000032e+01 4.659889999999999866e+00 7.830169999999999852e+00 6.013309999999999711e+00 3.819100000000000161e+00 4.644029999999999880e+00 1.493379999999999930e+00 7.495169999999999888e+00 1.732979999999999965e+00 4.496990000000000265e+00 6.959550000000000125e+00 4.031649999999999956e+00 4.037119999999999820e+00 1.022199999999999953e+01 5.638790000000000191e-01 1.168520000000000003e+00 1.044919999999999938e+01 1.032130000000000081e+01 1.852530000000000010e+00 6.806379999999999875e+00 7.623280000000000278e+00 4.299039999999999750e+00 7.492329999999999934e+00 1.022460000000000058e+01 4.195730000000000182e+00 1.058070000000000022e+01 7.092979999999999841e+00 2.245190000000000019e+00 1.067999999999999972e+01 5.183580000000000076e+00 7.563579999999999970e+00 7.398590000000000444e+00 9.725009999999999488e-01 1.017450000000000010e+01 7.590930000000000177e+00 5.861299999999999955e+00 1.038090000000000046e+01 1.049799999999999933e+01 1.530629999999999935e+00 7.202799999999999869e+00 1.106760000000000055e+01 1.104879999999999995e+01 7.512270000000000003e+00 7.544089999999999741e+00 8.431710000000000704e+00 1.062390000000000079e+01 8.143420000000000769e+00 1.075660000000000061e+01 1.031530000000000058e+01 1.104199999999999982e+01 1.034220000000000006e+01 7.277590000000000003e+00 1.079609999999999914e+01