-1.050219611927567712e+04
-1.050271166325392369e+04
-1.050286549948176616e+04
-1.050136281606579905e+04
-1.050224138117569419e+04
-1.050609869897068893e+04
-1.049958172390647815e+04
-1.050827427303409058e+04
-1.050060376134332728e+04
-1.049892183497601945e+04
-1.050163414060820833e+04
-1.050320613156894251e+04
-1.049920528567341171e+04
-1.050180329156204607e+04
-1.050004848373887944e+04
-1.050257307892094650e+04
-1.049872523755664224e+04
-1.050275878374371678e+04
-1.050293596990076185e+04
-1.050471432808947247e+04
-1.049955988166792486e+04
-1.050640965039627736e+04
-1.050350496898746133e+04
-1.050053553042428757e+04
-1.050128136161321163e+04
-1.050009396837840359e+04
-1.049740704845898654e+04
-1.049975891701199362e+04
-1.050722980947050928e+04
-1.050051818907880624e+04
-1.049981113238097714e+04
-1.050229570454028362e+04
-1.050011087704637976e+04
-1.049833277328651093e+04
-1.049971695898912367e+04
-1.050035171871110833e+04
-1.050274328331144352e+04
-1.049849059753105394e+04
-1.050887438293587911e+04
-1.050114867201589004e+04
-1.049748396940927705e+04
-1.050110491726932923e+04
-1.049738131834249725e+04
-1.049659162146032759e+04
-1.050180943344578372e+04
-1.050031068370229514e+04
-1.049733932149291468e+04
-1.050050572867507253e+04
-1.049982292261725888e+04
-1.049923575130688187e+04
-1.050763146914896424e+04
-1.050116941176543878e+04
-1.051271271531007005e+04
-1.049903132382125659e+04
-1.050010347415718570e+04
-1.050027183782267093e+04
-1.050141332298537600e+04
-1.050344187254499229e+04
-1.050252718640503554e+04
-1.049783637848242506e+04
-1.049728812934522284e+04
-1.050066609224844797e+04
-1.050105892621322346e+04
-1.050340976397367922e+04
-1.050115295456867898e+04
-1.050317457307268887e+04
-1.050059586039896203e+04
-1.050087943108390027e+04
-1.049798431703665665e+04
-1.050284077663559947e+04
-1.050099821780592538e+04
-1.049848415369773829e+04
-1.050046887603687355e+04
-1.050227240230354255e+04
-1.050042918840714265e+04
-1.050076036418811054e+04
-1.049989643952140796e+04
-1.050024478432756769e+04
-1.050089088755637931e+04
-1.049865074682676823e+04
-1.050138805252039128e+04
-1.050847776659217197e+04
-1.050122963730314586e+04
-1.049940178251863836e+04
-1.050112369682865756e+04
-1.049863644128154192e+04
-1.049970700412261431e+04
-1.049948766245456864e+04
-1.050413462733406959e+04
-1.050405734417446911e+04
-1.050162971284549531e+04
-1.051082135799532261e+04
-1.049896811207975406e+04
-1.050659661611435513e+04
-1.050346442303914409e+04
-1.050084872739256025e+04
-1.050190420956144408e+04
-1.049932687138125584e+04
-1.050147077550242102e+04
-1.050303712845455266e+04
-1.050386775446210959e+04
-1.050937725038603276e+04
-1.049965035261035155e+04
-1.050452562697389476e+04
-1.050101185560250269e+04
-1.049773453419830548e+04
-1.050113659184126482e+04
-1.050779265962275167e+04
-1.049806289983514580e+04
-1.050119040096053322e+04
-1.050353849323301620e+04
-1.049659606678887030e+04
-1.049921368162032377e+04
-1.050065486534625416e+04
-1.050298670581789884e+04
-1.049975323754985948e+04
-1.050041089700534576e+04
-1.050404525654339886e+04
-1.050218585299537153e+04
-1.049708736289145963e+04
-1.049976324553642189e+04
-1.050029517344479791e+04
-1.049695350343822065e+04
-1.050034581350458029e+04
-1.049754245326494492e+04
-1.049783207946698712e+04
-1.049872202448748612e+04
-1.049824026255783792e+04
-1.049878826360750281e+04
-1.050126814535200901e+04
-1.050129606617125137e+04
-1.050761569404528018e+04
-1.050072681930339786e+04
-1.050085398711124435e+04
-1.050062883818936098e+04
-1.050006778111001950e+04
-1.050057112248891281e+04
-1.049986645612512075e+04
-1.050100863324430793e+04
-1.050010941577440644e+04
-1.050574057621024622e+04
-1.050170603425533955e+04
-1.049775053034957818e+04
-1.050332248568346404e+04
-1.049878637925238763e+04
-1.050583452916194619e+04
-1.050427151298113495e+04
-1.050107564555372664e+04
-1.049942223428275793e+04
-1.050266922412869826e+04
-1.051080282980662378e+04
-1.050401211390020399e+04
-1.050178813431115123e+04
-1.049995675082344133e+04
-1.049826611026315913e+04
-1.050092106589510513e+04
-1.049792217714903927e+04
-1.050035744840072584e+04
-1.050105777250714891e+04
-1.049976305700724333e+04
-1.050284944665586772e+04
-1.050119104761298149e+04
-1.050419818192206912e+04
-1.050042415410473768e+04
-1.049908463380547619e+04
-1.050100161683821170e+04
-1.049947138279995306e+04
-1.050238826072149823e+04
-1.049754840822283586e+04
-1.050287620653430349e+04
-1.050975826083475476e+04
-1.050067979473784908e+04
-1.049754904994426579e+04
-1.050251836449456641e+04
-1.050452835769875310e+04
-1.050180238777094019e+04
-1.049983455245765981e+04
-1.050400813366480361e+04
-1.050086832398251863e+04
-1.049915939892263123e+04
-1.049984255404920441e+04
-1.050042674635006733e+04
-1.049934305598196079e+04
-1.050011042619137515e+04
-1.049827537034739544e+04
-1.050459464484302589e+04
-1.050534225797928593e+04
-1.050011743107176699e+04
-1.050649597853095474e+04
-1.050547711390635595e+04
-1.050474557040379841e+04
-1.050493720182862853e+04
-1.049916781593632550e+04
-1.051255759135281914e+04
-1.049977353892589417e+04
-1.050962407430482381e+04
-1.049947814587246467e+04
-1.049850712320226012e+04
-1.050358577508197232e+04
-1.049979440269391489e+04
