-6.194970218172878712e-02 2.821697785588170415e+00 2.009181364735079800e+00 1.344769227607595652e-01 -4.972955739802227271e-01 -3.378450120126878509e-01 -1.778843431783506679e-01 3.462833725814639663e-01 -9.843159912946754242e-02 -2.226302799006660005e-01 8.619880451821733403e-02 5.411318544047827306e-01 -1.116666097522073658e-01 4.103084692333683337e-01 9.075947872422176488e-01 1.065033203877295276e-01 -4.329933124077473550e-01 -3.563600400833370763e-02 8.847741898210281786e-01 -8.400200255686032236e-01 6.454836756688218102e-01 -3.785558594368199636e-01 4.948339998155223407e-01 2.319139677661521848e+00 -6.518173311914066126e-01 3.230853372164915194e-01 1.483192279497227151e-01 5.146906295146870258e-01 2.295223790294476443e-02 3.950088627737219360e-01 3.591856824553921745e-01 -1.068024425292808388e+00 -5.978771295714850886e-01 3.566665155799239595e-01 7.955656519445509778e-01 -2.125995837232809382e+00 9.071623276908256928e-02 -4.739622985890717954e-02 1.971616519136649925e+00 -9.522851881362924542e-02 -4.177189027590619830e-01 7.807360431424219260e-02 -7.602957730260995195e-01 1.832802145346175138e+00 1.615743960212313368e+00 -5.371533293761037164e-01 -1.724613723947849564e-01 -2.437410937209302242e-01 -3.721872369112689261e-01 8.548357504136718799e-01 -1.298985593650192394e+00 1.124446255682072793e-01 7.139686078608232789e-01 4.579669516145226660e-01 -8.980750206846457306e-01 -2.722633180860886792e+00 1.914474265642153838e+00 1.191248657966637731e-01 -1.591754539294912840e-01 8.199453663215311439e-02 -3.464890608342068301e-01 -4.611983140651131352e-01 -1.826187725358596470e-01 1.217212686110370035e+00 -5.904708098108462089e-01 2.808657664584904845e-01 3.674389235966997735e-01 -6.972677501793662913e-02 6.060614651481237569e-01 1.672728862193461064e-01 -8.302529188871080601e-01 4.659599971161105247e-01 2.966019976566467431e+00 1.454719883111295631e-01 3.740697986444980194e-01 6.391309939828583309e-01 1.840395641416809891e-01 -1.786299630945435701e-01 -2.206700708520264731e-01 4.592962119478734562e-01 -1.727591061406302808e-01 4.477061931264447181e-01 -3.590776961227021835e-01 5.067983712569431587e-01 -5.643422310649197637e-01 -1.662600772628402224e+00 1.307846643578355117e+00 -4.620519203139960007e-01 4.243384649529593489e-01 3.132760644431841213e-01 9.228511991687879390e-02 8.016211141053010136e-01 -5.054377434650491052e-01 -2.591060062008224696e-01 8.989677077015498785e-01 3.359403387922888645e-03 -3.001094451644813199e-02 -2.866121820194942882e-01 -6.480470655186297835e-01 6.381899702265597663e-01 -8.091647307746456796e-01 1.441883393478244901e+00 -1.143958357557893102e+00 1.458591964469179991e-01 -7.686379743367183215e-01 1.978859830956989918e-01 1.199383114141986173e+00 -2.706065506323080960e-01 -6.271763927334428335e-01 7.849809344584028903e-01 -1.890700303169501106e+00 -1.018915326509185038e+00 -1.469370028912906356e-01 3.214747981975148439e-01 1.164313781269959019e-01 2.818391861145960742e-02 1.238634089192275495e-01 8.050262831294591193e-01 7.416105379263056019e-01 1.267255609561445950e-01 1.789579330135420587e+00 3.681737448796236767e-01 -5.395115451938007345e-01 2.826002326497446468e-02 -3.659690239205360740e+00 -9.522893019013471960e-01 -5.193181009807696924e-01 3.316928763731487317e-02 2.136998101872025491e-01 -2.816422396125947136e-01 1.744827736986154787e-01 -1.164187797215153974e+00 -7.254912637794788122e-01 1.027663247898339183e+00 2.604692050958757887e-01 2.736332532714193522e-01 7.905895388900691101e-01 -2.171120754560803334e+00 8.789768664174704149e-01 -1.117780927851939943e+00 -1.042257343651077584e+00 1.018370252639416496e+00 -2.391888527332882486e+00 -9.274359903224265178e-01 -1.450111952029223605e+00 -6.499255134868040518e-01 -4.613587509022525242e-03 -1.176264268754319831e-01 4.723131930227058017e-01 -3.458418627469514117e+00 1.438659230116500654e+00 -2.007199558419902274e+00 2.111415625437131072e-01 -5.080875223810091823e-01 -8.178139218024831347e-01 1.007013689984850968e+00 5.154563040355223391e-01 -3.513253058768235348e-01 -6.770938463503456406e-01 2.975177731799211744e-01 7.212103770192679342e-01 -1.413700503308049083e-01 -4.971186820828638053e-01 -4.245405536612792234e-03 -1.829165062817049436e-01 2.686124030219659287e-01 -4.028784953236640431e-01 -2.126953830269958878e+00 1.318153167702668382e-01 -8.170533894879664638e-01 2.622071679874266703e+00 -1.007656979995304347e+00 4.072678826371968486e-02 -7.384969320004103333e-01 7.602844601721986395e-01 1.371070584485826194e+00 7.556857850614999705e-01 -5.963756053264620549e-01 3.237631828534056400e+00 1.321937831553137155e-01 -2.637022130524881991e+00 -1.008931732941678039e-01 -1.369595799713659856e-01 -6.179003667553712997e-01 1.386393330873906038e+00 1.099894277393420161e+00 -2.383664596767590682e-01 5.731189488094579065e-01 6.425474758609174275e-01 4.031988547773110443e-01 -8.183538534659332564e-01 -2.284639072808328564e+00
4.521536873713773996e-01 6.120865882915942358e-01 -7.153837430396943475e-03 -4.444357499078330914e-02 -2.114115283754381194e-02 8.257015520745403236e-01 3.460828265350396893e-01 1.316658842546491570e+00 6.946339121029937447e-01 -6.317750678441415024e-01 -3.794768285884760894e-01 1.204628678807561221e-01 -5.814009863061494476e-01 5.070873632520468410e-01 3.137830859861953092e-01 6.189869149504856338e-01 4.796320952759289824e-01 2.782627816200294313e-01 -1.647614326533556814e-02 -6.502227330120174953e-01 -2.959627699891850816e-01 1.120241987796008587e+00 2.549860704983827886e-01 5.264765663968533627e-01 -3.395465680835031974e-01 1.438671057191033276e-01 -1.263578417823035371e+00 5.881038522424077153e-02 -2.927579413231984784e+00 -2.272284407907328163e-01 4.024702041419694898e-02 1.125567256659521231e-01 3.772728789603363442e-01 -3.748843241253597025e+00 1.926049372065258558e-01 -8.741570764350733436e-01 1.968631982589351015e+00 -1.617065507236186583e+00 1.293148161037349864e+00 -1.183051981094834337e+00 3.621270244696151996e-01 9.128907455297144424e-02 -6.431033483639549964e-01 -4.901468787561443219e-01 -2.627173776983553477e-01 3.460206058385850159e-01 9.334436299644137680e-01 -2.857338931802823057e-01 1.776843113525582163e-01 -1.519424265217883263e-01 -6.405157901444497037e-01 5.255797656148945007e-01 1.941316582625098042e-01 2.222024483349608337e-01 2.964106561595327149e-01 1.716139367934843563e-01 4.479535332503679634e-01 -3.406680832815837112e-01 2.657373954692525131e-01 -5.812513481022790751e-01 -2.851877908692499464e-01 2.105138534184050503e+00 -5.297295261139817885e-02 1.610970964307415043e+00 1.813281815940244845e+00 -6.082505023779397613e-01 -1.269213247506925990e+00 5.967540717115090709e-01 -1.113010503050201105e+00 -4.178942519945252898e-01 -2.928625852217813907e+00 -2.216523865250632497e+00 5.095386530041100537e-01 2.140345163964783470e+00 -5.269038837419266486e-01 3.909465197820503196e-02 -1.238947763777708683e-01 -1.178182311711147012e-01 -1.955632485016001870e-02 -3.361465412656636231e-01 -6.266832551474917912e-01 -4.470803866174745123e-01 -5.847521621639627520e-01 -8.377785378343377554e-02 2.240608416984926354e-01 -1.635447866383816506e-01 1.630570483690651162e+00 5.079337704120838737e-01 2.301013914609188193e-01 -3.745027724165217453e-01 2.108374524620327595e+00 -1.349191525041567308e-01 -2.302330319426742489e-01 1.739814085825547654e-02 -6.569842201003074367e-01 -2.014855275186991646e-01 -1.203944765367191173e-02 3.213354444062815229e+00 2.833869902164861676e-01 -1.982109705350327267e-01 5.516594934007945650e-01 -8.351945791592556567e-01 -8.463043159105296254e-02 -2.728655218680566263e-01 -3.763596231181579599e-01 -6.602376940380676462e-01 -1.116305628859141752e+00 3.411576213231117261e-01 1.689776818801421721e+00 2.394759421120541187e+00 1.412386669593653998e+00 -1.084948968949123599e-01 -5.364771292452116258e-01 1.107493944111637596e+00 5.278726754123456155e-01 -7.899647608223625550e-01 3.436217665909712671e-01 4.714842693641521087e-01 5.302257490237239912e-01 1.954202951659438636e-01 4.107954361717370273e-01 -2.824634499616706651e-01 4.752046556356386842e-01 1.260934809554657532e+00 -5.432704980126766836e-01 -8.658755531590135723e-02 8.988453231911678332e-01 -3.589655960249573119e-01 1.583968724707963460e+00 -4.882710018911293748e-01 4.506537057882499808e-01 -2.900533464878825018e-01 2.538451177604181375e+00 -1.216154934270639476e+00 -1.780980018508873108e+00 -1.743840947593620960e+00 -2.568660611284526163e-01 7.221750549246319650e-01 2.967747243668875656e-01 5.399198363754953434e-01 -6.185354292357149453e-02 -9.844502028795901749e-01 -3.162976248759768461e-01 6.734567638212199947e-01 -2.178187174483784405e-01 -7.648044595262232237e-01 -7.380140788270964647e-01 -1.467557401185609844e+00 -2.360889764982636585e+00 -1.116127708520519235e+00 3.721383859512424896e-01 -4.951579588135924803e-01 4.086511361368926239e-03 1.529312727968496488e-01 2.273523679630103933e-01 5.499666790807207217e-01 -1.878931335568186090e-01 -2.008294848365757890e+00 -1.207747941160406846e+00 3.954937728295632171e-01 1.187397145434027218e-01 2.451932527852948851e-01 5.809798396086583994e-01 1.511422992186185754e-01 1.483911159940563440e+00 -1.455737011521109014e+00 5.804414506071039481e-01 -1.535204667968316006e+00 -1.317238883419226347e+00 -5.755774376503670631e-01 -1.385011105815473931e+00 7.627691742653324170e-01 5.977619441499490982e-01 1.979482037921537207e-01 -1.885259848884452527e+00 3.189478151684423501e+00 -1.708246081235835767e-01 -1.216040263069735561e+00 4.978221359072443897e-01 1.398369529389859478e+00 4.203835940733459120e-01 -8.401850903914293012e-02 -9.285384793571282991e-02 -2.996620732147655536e-02 -1.156634924574435841e+00 7.162759158359665035e-01 1.762959156465438437e-01 -8.882055840974111272e-01 -2.959936232270964918e-01 1.014531595622602533e-01 -2.860192856309630161e-01 2.006336696199646497e+00
-1.425906558446442762e+00 -7.014175106784535652e-02 -1.236973156551376962e-01 -4.690962287498073868e-01 -9.937982197461216194e-02 1.338068932774496567e-01 -3.312609310423886462e-03 4.646466776223472372e-01 6.398524455293539415e-01 8.555705716965959773e-02 -4.743932154785680533e-01 1.889945941502566562e-01 6.393973602701602532e-02 5.426524048131844413e-01 7.039937560440580055e-01 1.207771081088840459e+00 -1.171795691463480976e-01 2.883826436549785655e-01 -2.260483044406206010e-01 5.363676002506259088e-01 -3.978694721487433528e-01 -6.447606814604306402e-02 -3.769777163176503132e-01 -2.463260808372762234e-01 -2.045883348113253231e-01 -1.181108227106414388e-01 3.102694164087152484e-01 1.234483814472556507e+00 -1.117776814086885173e-01 -8.151219767947109895e-02 1.653270753483985778e-01 -6.350110582804187331e-02 -2.731555423044240150e-01 5.017286700474633543e-01 1.544568625674435314e+00 -2.946911023666022866e-01 -2.060785462024474213e-01 -1.107703231908803432e-01 -9.942044540452886492e-02 -1.921205927933796076e+00 7.324142161461718592e-01 -5.716883870116312716e-01 -2.735016127896638949e-01 -8.248572017970308146e-01 -3.821749442438306943e-01 -7.995616604747129638e-03 4.686884517887446311e-01 3.084300492085621515e-01 1.212098761926550194e+00 9.731368347581005329e-01 4.188327046476645887e-01 -5.574197929188585698e-01 -1.483711642335402703e-01 -6.653372200441953765e-01 2.142659671028772639e-01 -3.065780321808654119e+00 5.336962240681280001e-01 -2.239081181708310608e-01 -6.548039246212330466e-01 2.144377167939175710e-01 1.439149282378660299e-01 3.873505749034731327e-01 6.733976284485564123e-02 1.061782301042694332e+00 -7.178674286915643910e-01 -7.882863446799808216e-01 -9.593315534546311696e-01 -4.747074042846327613e-01 -1.585085097699725221e-01 1.046647759405874289e+00 1.687980646134344676e-01 1.791241291217583187e-01 -4.645037242866910110e-01 2.872678133251121979e-01 -9.548151536450294463e-02 -5.175368407120164438e-01 -2.874251648384604785e-01 4.679011800013712641e-01 1.001115579337449102e+00 -5.169496007504356117e-01 -6.735416102254762616e-02 2.785636006896658953e-02 5.082484734387803238e-01 6.533466233505497156e-01 -1.325048866375873047e+00 6.288604653027750624e-01 -7.292173064779159386e-01 6.337393906578359104e-01 2.068534766946561743e-01 3.214367458707573788e-01 -9.105284159469627658e-01 9.681447808640311070e-01 -7.984067209355617534e-01 -3.509566096837819504e-01 2.172700440341868433e-01 1.189598009738376122e-02 1.554594385333754269e+00 -1.943836263721198110e-01 5.150109889683339714e-01 1.505895120393720976e-01 -1.216275261898493998e+00 6.831914746029079666e-01 -9.775077101288864867e-01 -1.831653890675238039e-01 7.949192766103064800e-01 7.093210817900981457e-02 -5.257304322600285795e-01 2.703314425942644483e-01 5.381437183130606261e-01 -3.281858916638828033e-02 -7.757018231565404077e-03 1.484524110933737040e-01 -1.051188327585172777e+00 1.111926011737614184e+00 1.153696667884004157e+00 -9.612531959558813233e-01 1.069476070136541300e-02 -2.869716222411624607e-01 5.145996124628483548e-01 1.078907390745433403e+00 -8.711416866498628009e-01 7.086284265989867270e-01 -7.570099031885321184e-01 1.457576378721262111e+00 1.964132552060600667e-01 8.577734928834720440e-01 -5.626535305099007456e-01 -2.540069944153267589e-01 4.056496303087424038e-01 6.033607783896099974e-02 -5.760921725028560481e-01 -4.489027845367762892e-01 4.900265511282897446e-02 4.636727437456097944e-02 6.937803058541108792e-01 1.975774507165846960e-01 6.565414761362783347e-01 -6.082412464065662938e-01 3.367558927144143621e-01 5.432890099554235075e-01 -3.066801563983522216e-01 3.436845015080577936e-02 -1.172206039527702970e+00 -5.065294338664818596e-01 -4.173923726578326332e-01 3.528422567408021626e-01 -6.166487537374309991e-01 7.151106918841780846e-01 -9.512567468725779962e-03 -1.818664677514525707e-01 -9.039844441859483382e-02 1.192831943292125718e+00 -2.246773922360893738e-01 -1.364914849301863908e+00 -6.304236960236209164e-01 -3.657147418180827225e-01 -8.575852881322122423e-01 -1.895838909943649842e-01 2.948880488686036472e-01 -1.294596720557291691e-01 -6.932398599700289044e-01 2.316275982962708868e-01 4.994486157658086234e-01 2.656720894490066653e-01 -7.299958365145475803e-01 1.379448267020043084e-01 -1.177069024043176260e+00 -2.459064768016807623e-01 5.546661414352633823e-01 6.458451727730174508e-01 -3.065166342374216479e-01 -3.294899551862724985e-01 -1.952341472972115785e-02 5.006812026203703164e-02 2.067537178920758889e-01 4.265470425667858834e-01 1.624572100020037213e-01 -1.601974160132442204e+00 2.124918545009068183e+00 -1.964437484895291908e+00 1.131964161319824469e-01 4.539102650498014757e-01 -1.489378353698468938e-01 1.299497243178890094e-01 -1.980078533854491285e-01 -4.026193281252080786e-02 1.158822933362988250e+00 3.264061740570251002e-01 6.989852470897692238e-02 -2.673160528090540722e-01 2.264576240635788884e-01 5.602593192479738970e-01
-3.951759844790755372e-01 2.506105671419101358e-02 5.367193271628163398e-01 8.686045220522796706e-01 -5.648451388428760156e-01 -1.694722078617992289e-01 -1.545999187472262004e-01 2.286574599266638641e-01 1.199166113035342374e+00 6.577704634464170974e-02 -1.192889021782261860e-01 1.065526855683878310e-01 -1.019159581309317247e-01 -2.100329028614290328e-01 -2.310341876871077338e-01 9.558975880750889553e-01 4.722057209106477194e-01 -9.465264312801239255e-01 -2.136548158819150611e+00 -2.478399463774637601e-01 7.603163418513738669e-01 3.978267918362992650e-01 1.587139923344626391e+00 -7.118700734622143145e-01 2.403062027442507187e+00 1.579556711686628701e+00 -1.237134107609148437e+00 -8.121497815425765543e-02 2.778868863381418475e-01 -7.261623217040524825e-01 7.062892369446683860e-01 -3.561173279451004814e-01 6.553397425196281212e-01 4.932743686390995697e-01 1.566183889934551265e+00 -4.899879845809004819e-01 1.605576789879233357e-01 9.887912534537284248e-01 2.378578954718523625e-02 1.066831947647531642e+00 -1.886541800919672163e-01 1.016846102686591813e+00 5.300195465503493297e-01 1.102946691064124463e-01 -4.405374432977238186e-01 -2.139770265298367224e+00 -9.831574522111012904e-01 1.080165174410956164e+00 -1.074540114919070533e+00 -2.291999626932732237e-01 1.149565933548295504e+00 8.401629789042595053e-01 6.086166274678219690e-01 3.660325301685704580e-02 8.089353883728371830e-01 -4.441117909097630490e-02 -5.098914083575640799e-01 7.595002737086163913e-01 -1.824938169223183360e-01 -1.291826099792845017e+00 -1.759971534594348685e-01 -4.563085900767832603e-01 -6.413395715966848654e-01 9.907694602244827842e-02 5.177666973344566825e-01 -1.969872282753390547e+00 3.931818368687333809e+00 1.048529292697839344e+00 -2.456545086920707832e-01 4.631425822741649934e-01 9.151564016336772855e-01 -6.489397525355339313e-01 -2.434623861384636601e-01 1.132921640136342445e+00 -1.083150225178887149e+00 -5.755820656360537413e-01 -5.745212284725323970e-01 1.467431417130804841e-02 1.062256412465266558e-01 2.183185399025436568e-01 -5.798403266884630258e-02 7.677869391909947216e-01 -2.266597127718987525e-01 4.459660705082400534e-01 1.932615969534074996e-01 1.243604031599175430e+00 -7.620477227188369174e-01 -2.384754744507128210e-01 -1.653440446292498700e-01 3.402021993891211071e-01 2.402582773813616013e-01 -4.445663619483248841e-01 -3.022871695403963610e-01 -1.041538463207741239e-01 -5.163088818431416094e-01 8.767256084911997926e-02 3.978884983121220853e-01 8.896058068779582051e-01 1.366586066355399698e+00 -1.967714612982117695e+00 -5.268483479136861769e-01 -2.147966427949538903e-01 2.192791040428528626e-01 -8.172729616977695288e-01 4.924912106167811388e-01 -8.653433348050413310e-01 -2.574964956231095004e-01 -6.723475899183040116e-01 -4.763842777651190463e-01 1.174011982386785335e-01 5.002317737881272208e-01 -2.412106139915611014e-01 -4.684930479486389410e-01 4.758479456460920076e-01 3.383818583523466872e-01 -3.081621402593645934e-02 -2.373123073814518980e-01 4.249982100236320698e-02 -8.423602436641852709e-02 -2.137157510267901073e-01 9.642351614000211901e-01 3.905587974256300443e-01 -3.016341093379378280e-01 -9.761265135117179748e-01 3.846133784800973565e-01 -5.153652869836835571e-01 3.913604673906953546e-01 -1.688978234160147529e-01 2.572111031724287900e-01 7.009022616053326438e-01 3.361131169245928363e-01 5.187375458874029510e-01 -7.256784400894747411e-02 -3.794470037918283856e-01 3.559080401479346456e-01 -2.673916432419370381e-01 2.018737640957513346e-01 1.985524130345858729e-01 -4.866974867576464026e-01 -1.088628731790693305e+00 -3.354723980172988340e-02 -3.958393290941712994e-01 -1.233728424364358478e+00 -6.865899587588520925e-01 -5.061226853466829212e-01 2.833653929499481139e-01 7.931503576367177066e-01 -1.679614276454028943e-01 1.496711139908752097e-01 8.725388241066186490e-01 -3.002736358122332749e+00 -1.064187825158522172e+00 -1.993109398886383943e+00 -4.268211221635657138e-01 -2.093711009082288577e-01 -7.476819409266430294e-02 3.847568460363855469e-01 -9.548948578429673484e-01 9.624605859994820323e-01 -5.946750776969104146e-01 -1.002201613311931361e+00 5.299285294985106587e-01 -2.672132086826825570e-01 -1.294573066408226225e+00 1.332907700292546238e+00 -4.126810832287573505e-01 2.909300926651989805e-01 1.063732225678696852e-01 -2.803273774569359916e-02 -2.016377368257289138e-01 3.149256842301819681e-01 -1.933469575782957584e-01 -8.215600191055627555e-02 -4.384203969563679193e-01 -5.571981638265280923e-01 -4.813675899084469134e-01 2.611957988486900417e-01 5.973084015526509277e-02 -1.127154655750064238e+00 -4.987888706951358331e-01 2.720114013985418522e-01 1.995289180144826646e-01 5.487839716274491852e-01 5.839124398721399212e-01 2.128436328351603624e-01 2.855107214260562687e-01 -5.693301711939342535e-01 4.171038948833608040e-01 -3.714853257487839011e-01 -3.160878228581791571e-01 5.881383050247421806e-01 1.090736522160675959e+00
1.315098697149436890e-01 -1.483691073510128300e-01 1.496670002258203291e-01 -6.607837963491000610e-02 -5.085004415483903584e-01 -1.180969387535812792e-01 -3.385299538943215558e-01 1.149491371556676356e+00 -6.622858348147548924e-01 -1.234391768979453963e-01 -3.548389754543035957e-01 5.859286989696518289e-01 -4.852607028901743114e+00 1.133835924419784646e+00 -4.126668907393180596e+00 -5.711417704799670592e-01 -6.412598673987470743e-01 2.687214177959196607e-02 1.335928746504707165e+00 1.159427656826052200e+00 4.431681960503051632e-01 6.975384359199757967e+00 -4.013965114626517061e-01 1.117933137158969803e+00 1.281171962521396424e+00 8.658416145973110156e-01 -1.461846466848204074e+00 7.461675611658237228e-01 -5.997283238461709187e-01 -1.794968362357283853e+00 -7.141393291106000463e-02 4.469790851529986675e-01 5.605601383176102015e-01 -7.020602864682749800e-02 -6.839329807540460715e-01 2.019709517951723543e-01 6.458791113347198687e-01 -1.656969542488934355e+00 -1.423381220923392254e+00 6.079717947954731416e-01 -1.213039785682848759e+00 -8.061179735308918737e-01 -9.612393119988211776e-01 -1.420642481838120808e-01 -1.705309881427931329e-01 1.069566058747116299e+00 -8.467563158459321393e-01 3.669673832772867850e-01 -5.407667577561641181e-01 2.891822567375164355e-02 -5.891636609646652145e-01 7.234415803408962287e-01 -5.399640593498350460e-01 9.001421876247115428e-01 -2.378537817067975235e-01 -3.150274999152896660e-01 -7.774280618176848678e-01 3.088126293586639370e-01 -2.847815565700828055e-01 1.272346393816831955e-01 -1.181339626390749964e-01 1.056029200613476382e-01 3.927375502428088194e-01 9.115465727980399668e-01 -5.993076913693117236e-01 -6.704655424057067714e-01 -7.650785391230029431e-01 -2.358442074774996788e-01 2.620601008867155191e+00 -5.161787840232816560e-01 -3.750036233119506401e-01 1.078495500019315961e-01 1.169923928363520854e-01 -1.272384446143589143e+00 2.920027569032530579e-01 1.780735763708741204e-01 1.923411420223831159e-01 1.659210001781936117e-01 3.944277934597233137e-02 3.534937742813652473e-01 -3.906534140218916734e-02 -7.083214368817679629e-01 -4.837432892276270491e-01 2.484960919037134952e-01 -1.610497367105474531e+00 2.320759986872503178e-01 -3.649110149704899997e-01 -4.837823699956481094e-01 8.122834789068593409e-02 3.925390610789119550e-01 4.099783395877160674e-01 8.221837687320053822e-01 1.710611496142378785e-01 -5.859544100012447493e-03 3.164179525038314789e-01 -1.211422047575026140e+00 1.526037142543566483e-01 4.406217754813485099e-01 1.385262559704451890e+00 -1.121430865896862139e+00 -1.655596573401875826e+00 1.912811790339359552e+00 -1.003759701826458572e+00 1.283086920154432597e+00 -9.091050532379820748e-01 7.539091527784334834e-02 -1.090054151382201519e+00 -2.828264897277618095e-01 -1.442548280755236445e-01 1.740083537436640571e+00 -5.290163020975958696e-01 8.381071248180946842e-01 4.096070722915151063e-01 -2.824511086665060580e-02 -2.498736889764587854e-01 -1.183262811553895816e-01 4.498998583419474007e-01 -1.418735751735194395e+00 -8.147090576273297025e-01 2.765131973421986356e+00 6.615139896463372027e-02 2.374475474076303272e-01 -2.895144432656961975e-01 -4.727893613278056351e-01 1.253804626273326006e+00 -1.575303592840538114e+00 5.394200139213302103e-01 -3.194688235126399989e-01 2.172424818083193099e+00 2.063927350085121570e-01 -5.351972340925190696e-01 9.167767108446590596e-01 -3.791631540030432901e-01 -1.298131473180677675e+00 -9.283836989469392842e-01 -9.039772450971024220e-01 -3.384543634614385899e-01 -1.489109930528639492e+00 -3.023966985349819669e-01 2.135369050910301603e+00 1.122415084186236811e-01 -3.839644320426937041e-01 8.257581163440446126e-01 2.310033344491962959e-01 3.580209727242357753e-01 3.927802305552530182e-01 5.519952794733973267e-01 -5.711967920875757887e-01 3.755630953594112365e-01 4.784313901005424197e-01 -1.940735513311099558e-01 4.697832275139685043e-01 1.261660889086839710e-01 -1.002421699742366279e+00 -6.353658705164000331e-02 6.357031992508984652e-01 1.728357250147769808e-01 -8.405558434669982981e-01 3.402021993891211071e-01 6.707015696757292478e-01 1.455347232282161174e-01 -7.063555714061779955e-01 -2.088141999639275548e-01 4.501425704801839678e-01 -8.138415674213865525e-02 -5.285637879415616691e-01 -2.849173108168930324e-01 -1.035086022719197363e+00 3.411329387327826090e-01 5.479756167941697287e-01 -3.295444625732493749e-01 2.371025053636542090e-01 3.928841031228880731e-01 -4.029124338853666276e-01 -2.795113093141786687e-01 6.548147232545019625e-01 -9.881675038272856593e-02 -4.242448767979613566e-01 5.633004200647770965e-01 3.673453354417017813e-01 1.707449553477089266e+00 5.658936347112327736e-01 9.789490705599821485e-01 -1.270022116560837466e-01 -8.225128699363939422e-01 5.754200861370186715e-01 7.239043789095676029e-01 4.355371618735447425e-01 1.159408116442041670e-01 1.853302579276424888e-01 -7.222269912084495758e-01 -8.556219937597815683e-02
-9.188140529880772789e-01 1.109446439850799049e+00 4.233259645288325324e-01 2.155715732871626156e-01 -5.050572201974747877e-01 -3.244706475987146899e-01 -1.518107860400328690e-01 5.615566979021493488e-01 3.523059246217751794e-01 -2.268952258212893758e-01 1.421048716137287837e-01 3.970811719201063350e-01 3.297856320495904381e-01 6.422908797656206037e-01 -6.851989919496785306e-03 -3.822736746051472734e-01 -7.150381867750863485e-01 -8.593480364582186670e-01 6.833123164513945635e-01 1.196200602651422140e-01 1.305446775889478050e-01 5.372422895454150860e-01 5.963457805298143510e-01 -1.714405415964221024e+00 1.241264841944856867e+00 3.815229124826358675e-01 1.036009048753381068e+00 -1.026687771359706125e-01 1.100635783544558155e+00 -6.940111909178148242e-01 5.272977767459292586e-01 -1.179539854179249975e-01 -6.835375450881479020e-01 2.952856442611555998e+00 6.278736759102411524e-02 2.509728355770535213e+00 9.344365900045299711e-02 4.665328388999993581e-01 -2.036812496167292874e-01 2.313915710262484382e-01 1.036328893986396160e+00 -7.470679614922056677e-01 -7.309564006548567860e-01 2.410697175384322322e-01 4.631718928501808996e-01 -4.090532566710049500e-01 -8.036111479505880784e-01 -6.632407425281136026e-01 4.394143854377478564e-01 4.278454496622251524e-01 -9.936305838201361373e-01 1.349865154069300188e-01 -3.445324513299902747e-01 -1.953853281629775729e-01 3.527352988493759334e-01 8.735477249863225768e-02 -1.392904392514481282e+00 1.217031680447956121e-01 -1.281880044331463742e-01 9.525623530568633202e-01 -9.206451926581206424e-02 -2.556885473035629186e+00 4.119668307711076838e-01 -8.666479125480629486e-01 -2.622772048374856446e+00 2.745099994487358863e-01 1.111534175616139125e-01 -6.566016399502055956e-01 -3.190841864800108424e-02 -7.591937982120294803e-01 1.442685577663942231e+00 6.196564302131636337e-01 2.776966247043546887e-01 -1.727750469802178390e-01 -1.579696065477862177e-01 3.063068322196239590e-01 2.157129839609233657e-01 -1.217921282141069123e-01 7.854298490700142299e-01 -9.268261246530438979e-02 1.047961078899637272e-01 5.479972140607077824e-01 -4.479509621472087533e-01 -6.013326922175652456e-01 -2.263023294327580759e-01 -6.168467286806960104e-01 5.586750054812219396e-02 -1.006775605832300968e+00 -3.544970187341185408e-01 5.320933983586292326e-01 -6.947809792037049625e-01 1.867551632985187116e-01 -2.234571466766923087e-01 4.748508718409209517e-01 -8.493464451685966976e-01 2.379629507469407379e+00 8.981578102063747515e-01 -8.808825680791332324e-01 -8.597409010209575153e-02 -1.154609409505550577e+00 5.431712534307282098e-02 8.324866933118956203e-01 -1.484765794630709956e-01 -9.784682742691956925e-01 4.842600809626434466e-01 4.402839325262182246e-01 -1.015477761585219935e-01 -6.805679209391728435e-01 4.340839743679164031e-01 -3.260801581764276591e-01 -2.349232383258434975e-01 2.415098903993019852e-01 4.649840063568455584e-02 -1.086501915257332085e+00 -8.794561200463613115e-01 8.155847753633824193e-02 -1.177334361889214476e+00 -1.183280809276010759e+00 -2.543381525022427869e-01 6.417062109071990095e-02 -1.901749876106848314e+00 -1.263069853618128402e+00 -2.739233765519131225e+00 -7.335784116566965718e-01 -1.148156969017006812e+00 2.092106640710894305e-01 -6.565815853455633233e-01 1.828661126597829201e+00 1.192227734049693622e+00 -8.066620189593967094e-01 -1.007998422494857493e+00 5.271491669833225924e-01 -3.677037472221062475e-01 -4.464633218592459207e-01 6.689845869859581962e-01 1.353607137607324873e+00 -1.328581047896099987e+00 -9.299016782521815072e-01 4.612574494377766898e-01 -6.025693928371818053e-01 7.457191607748443474e-01 3.085133529509230255e-01 1.026808613208192611e+00 9.277532644522824556e-01 -4.592910697415548693e-01 -3.830681454813665843e-01 -1.066992384484671152e+00 1.387775041711706292e+00 3.105075005612651373e-01 1.092403625449156923e+00 -6.283004790346827240e-02 7.259756596146882401e-01 1.578173972407564962e-01 5.658992911381831581e-01 3.121566061276310200e-01 3.285643580489296389e-01 1.432752377718357339e-01 1.082573783850575122e+00 2.395416080867422970e+00 3.567148523193185150e-02 3.207379200320635171e+00 -5.195325309842541150e-02 -8.119019271980213448e-01 -4.864012956736966584e-03 1.124297131698834135e-01 6.319977253777357695e-02 -5.198693454981205830e-01 2.495744125687179571e-01 4.719162146949120729e-01 4.208957578226755758e-01 7.353601861460816735e-01 8.881037684123034293e-01 4.044309274112408148e-01 5.716107396962207821e-01 -1.130938805379901435e+00 -1.048384796700287724e+00 5.775469026703800024e-02 4.316943910916761773e-01 3.668336859130039151e-01 -2.682550196828252242e-01 -6.089184749787223128e-01 2.649865819246778553e+00 2.543268396483419624e-01 2.808673091203860248e-03 -5.236720070707043262e-02 -1.137864843070385490e+00 7.215518195188210804e-01 -8.104127442481630084e-01 7.569584811253464440e-02 -1.739347687712453183e+00 8.034188294342736736e-01 -3.252617246187638145e+00