5.191819999999999879e+00 5.444329999999999448e-01 3.545469999999999899e+00 1.088060000000000027e+00 1.318219999999999947e+00 1.990550000000000042e+00 2.297130000000000116e+00 8.559829999999999828e+00 8.827709999999999724e+00 6.274619999999999642e+00 6.755700000000000038e+00 8.885400000000000631e+00 1.041080000000000005e+01 5.165589999999999904e+00 2.069770000000000110e+00 5.618089999999999584e+00 9.047610000000000596e+00 1.039070000000000071e+01 9.784299999999999997e+00 1.021240000000000059e+01 3.980630000000000113e+00 3.028070000000000039e+00 7.095679999999999765e+00 1.052309999999999945e+01 1.003730000000000011e+00 4.775280000000000413e+00 7.044749999999999623e+00 3.848059999999999814e+00 1.081949999999999967e+01 8.940149999999999153e+00 6.788140000000000285e+00 1.526420000000000110e+00 1.138649999999999984e+01 8.295550000000000423e+00 7.012819999999999609e+00 4.869780000000000442e+00 6.336750000000000327e+00 9.396000000000000796e+00 7.701749999999999652e+00 7.175419999999999909e+00 2.817379999999999995e+00 1.678430000000000089e+00 1.090939999999999976e+01 1.070599999999999952e+01 6.363970000000000127e+00 6.986740000000000173e+00 1.137219999999999942e+01 9.882609999999999673e+00 8.709749999999999659e+00 8.484109999999999374e+00 7.540149999999999686e+00 2.413819999999999855e+00 2.681999999999999940e+00 6.722480000000000011e+00 2.099979999999999958e+00 9.965510000000000090e+00 1.057569999999999943e+01 1.181199999999999939e+01 8.424830000000000041e+00 8.260830000000000339e+00 2.053469999999999906e+00 1.208309999999999995e+01 4.463110000000000355e+00 1.194340000000000046e+01 2.386010000000000186e+00 9.430550000000000210e+00 2.670830000000000037e+00 1.134919999999999973e+01 8.833159999999999901e-01 4.001380000000000159e+00 1.445640000000000036e+00 1.036580000000000013e+01 1.185459999999999958e+00 5.972279999999999589e+00 8.941340000000000288e+00 5.108340000000000103e+00 5.426549999999999763e+00 3.526790000000000092e+00 8.500769999999999271e+00 3.438479999999999870e-01 1.568219999999999947e+00 5.624799999999999578e+00 1.027640000000000065e+01 5.373479999999999812e+00 8.259100000000000108e+00 9.457779999999999632e+00 1.087169999999999970e+00 8.545180000000000220e+00 1.100149999999999961e+00 4.451159999999999783e+00 2.112760000000000193e+00 6.189960000000000129e+00 3.925460000000000171e+00 4.402590000000000114e-01 7.675889999999999880e+00 1.089179999999999993e+01 7.274939999999999962e+00 4.012450000000000294e+00 4.195310000000000095e+00 4.243590000000000195e+00 8.380269999999999442e+00 1.312270000000000048e+00 4.462460000000000093e+00 4.298989999999999867e+00 1.155729999999999968e+01 9.290050000000000807e+00 7.630119999999999791e+00 1.039910000000000068e+01 9.905799999999999272e+00 1.071930000000000049e+01 1.064300000000000068e+01 3.843560000000000088e+00 2.022339999999999804e+00 1.616929999999999978e+00 6.036430000000000184e+00 1.117619999999999969e+01 8.740499999999999936e-01 8.772959999999999425e+00 2.250680000000000014e+00 8.253640000000000754e+00 9.650399999999999423e+00 1.248189999999999911e+00 1.063589999999999947e+01 1.743349999999999955e+00 5.001610000000000333e+00 7.383819999999999828e-01 3.654529999999999834e+00 4.370700000000000252e+00 8.813079999999999359e+00 4.544789999999999885e+00 2.540919999999999845e+00 4.958849999999999980e+00 9.822689999999999699e+00 6.123339999999999783e+00 7.174179999999999779e+00 8.734690000000000509e+00 1.107840000000000025e+01 7.586009999999999920e+00 1.172450000000000081e+01 4.636180000000000412e+00 1.068009999999999948e+01 2.750410000000000021e+00 9.516939999999999955e+00 5.797839999999999883e+00 5.741559999999999997e-01 6.040870000000000406e-01 6.524379999999999846e+00 1.065290000000000070e+01 3.129849999999999799e+00 4.706100000000000172e+00 1.170250000000000057e+01 1.029870000000000019e+01 1.229009999999999936e+00 8.083790000000000475e+00 4.702069999999999972e+00 1.013719999999999999e+01 1.081310000000000038e+01 7.361360000000000126e-01 3.085929999999999840e+00 7.287259999999999849e+00 4.613760000000000083e+00 7.357999999999999652e+00 1.018080000000000096e+00 4.582100000000000062e-02 9.948330000000000339e+00 1.221020000000000039e+01 7.491550000000000153e+00 5.782479999999999620e+00 6.497939999999999827e+00 8.579269999999999285e+00 3.559439999999999937e+00 4.057879999999999932e+00 6.240879999999999761e+00 5.962049999999999628e+00 1.646290000000000031e+00 3.726100000000000190e+00 3.326620000000000132e+00 9.711289999999999978e+00 3.346439999999999859e+00 1.101599999999999913e+00 1.377920000000000034e+00 8.391049999999999898e+00 1.428439999999999932e+00 1.072729999999999961e+01 7.470010000000000261e+00 2.205159999999999787e+00 7.461899999999999977e+00 6.786360000000000170e+00 6.927670000000000217e-01 5.674540000000000362e+00 8.105440000000000422e-01 7.590849999999999653e+00
3.659440000000000026e+00 1.128500000000000014e+01 1.266040000000000054e+00 9.018140000000000711e+00 7.061969999999999636e+00 1.003260000000000041e+01 1.681359999999999966e+00 6.821460000000000079e+00 3.304829999999999934e+00 5.399149999999999672e+00 8.380109999999999504e-01 7.949600000000000222e+00 7.786139999999999617e+00 5.467640000000000278e+00 1.170379999999999932e+01 9.941020000000000412e-01 3.325289999999999857e+00 2.854699999999999793e+00 4.755600000000000271e+00 4.097120000000000317e+00 6.711879999999999846e+00 4.506660000000000110e+00 2.702529999999999877e+00 8.753970000000000695e+00 1.224649999999999928e+01 6.177959999999999674e+00 6.225069999999999659e+00 3.976469999999999949e+00 6.505870000000000264e-01 1.153009999999999913e+01 5.275879999999999903e+00 5.731700000000000017e+00 1.219120000000000026e+01 9.503600000000000492e+00 6.231300000000000033e-02 5.668520000000000003e+00 8.141360000000000596e+00 9.533860000000000667e+00 1.089799999999999969e+01 1.032099999999999973e+01 2.714160000000000128e+00 7.142030000000000101e+00 1.216179999999999950e+01 3.906800000000000272e-01 4.029250000000000220e+00 2.391080000000000094e+00 1.231559999999999988e+01 9.518549999999999400e+00 1.077710000000000079e+01 4.943609999999999949e-01 1.648849999999999927e+00 1.157000000000000028e+01 1.024890000000000079e+01 1.386889999999999956e+00 1.134430000000000049e+01 2.827080000000000037e+00 5.972870000000000124e-01 1.188139999999999930e+01 1.699680000000000080e+00 8.997279999999999944e+00 1.179299999999999926e+01 7.968779999999999752e+00 2.624000000000000110e+00 8.245169999999999888e+00 8.154970000000000496e+00 4.218250000000000277e+00 8.740240000000000231e-01 7.500809999999999977e-01 1.426770000000000094e+00 6.653570000000000206e+00 1.053509999999999991e+01 8.094310000000000116e+00 6.538789999999999658e+00 7.931820000000000093e+00 7.586920000000000108e+00 5.247930000000000206e+00 9.273049999999999571e+00 3.159749999999999837e+00 1.051939999999999920e+01 7.148649999999999949e+00 8.155409999999999826e+00 2.943379999999999885e+00 1.260750000000000037e+00 2.748889999999999834e+00 4.542180000000000106e+00 6.786850000000000271e+00 2.932850000000000179e+00 1.081719999999999970e+01 1.146000000000000085e+01 8.411899999999999267e+00 1.336140000000000105e+00 2.318869999999999987e+00 1.134169999999999945e+01 1.146240000000000059e+01 8.087419999999999831e+00 4.835919999999999774e+00 1.023840000000000039e+01 7.749100000000000321e+00 1.227159999999999940e+01 1.512480000000000047e+00 1.004889999999999972e+01 1.152120000000000033e+01 6.636569999999999858e+00 5.700779999999999959e+00 4.455040000000000333e+00 8.367380000000000706e+00 1.150730000000000075e+01 1.063839999999999897e+00 5.565430000000000099e+00 3.441170000000000062e+00 3.635260000000000158e+00 7.330759999999999499e-01 5.776959999999999873e+00 1.239840000000000053e+00 8.722110000000000696e+00 9.231170000000000542e+00 7.195560000000000400e+00 2.127439999999999998e+00 3.043950000000000156e+00 8.839169999999999305e+00 7.417970000000000397e-01 8.411170000000000258e+00 8.256869999999999266e+00 6.946019999999999861e+00 1.585860000000000047e+00 5.990619999999999834e+00 4.314910000000000245e+00 6.888279999999999959e+00 6.477079999999999949e+00 6.170899999999999608e+00 5.338440000000000296e+00 9.444219999999999615e+00 5.306440000000000268e+00 1.132349999999999968e+00 1.470080000000000053e+00 3.697280000000000122e+00 1.014390000000000036e+01 8.648220000000000240e+00 1.174549999999999983e+01 4.691480000000000317e+00 9.006040000000000489e+00 5.248210000000000264e+00 8.751889999999999503e+00 7.464169999999999972e-01 1.220129999999999937e+00 6.615709999999999980e+00 1.060030000000000072e+01 1.063770000000000060e+01 1.120979999999999954e+01 1.113419999999999987e+01 7.781220000000000248e+00 4.027260000000000062e+00 7.423790000000000333e+00 3.961019999999999985e+00 6.895579999999999821e+00 9.463440000000000296e+00 2.150999999999999801e+00 9.575609999999999289e+00 2.484119999999999884e+00 2.914509999999999934e+00 1.156479999999999997e+01 6.066889999999999894e+00 7.958160000000000345e+00 2.857540000000000191e+00 -5.092100000000000098e-02 3.935519999999999907e+00 3.243290000000000006e+00 4.821630000000000082e-01 2.914080000000000004e-01 2.373359999999999914e+00 6.088809999999999611e+00 8.248409999999999798e+00 7.495690000000000408e-01 9.178169999999999717e+00 5.899219999999999686e+00 1.097439999999999927e+01 5.428320000000000256e+00 2.503979999999999873e+00 4.822689999999999699e+00 5.101510000000000211e+00 9.433640000000000470e+00 2.278129999999999988e+00 3.941640000000000033e+00 9.881850000000000023e+00 3.218539999999999957e+00 1.006470000000000020e+01 9.501269999999999882e+00 1.039220000000000077e+01 3.321600000000000108e+00 1.013330000000000020e+01 6.105470000000000397e+00 2.956329999999999902e+00
1.096640000000000015e+01 9.352159999999999584e+00 8.911999999999999783e-03 5.361580000000000013e+00 1.093459999999999965e+01 9.525790000000000646e+00 3.199689999999999923e+00 2.235959999999999948e+00 7.431969999999999743e+00 5.394630000000000258e+00 1.891230000000000133e-01 4.730789999999999829e+00 7.270459999999999923e+00 1.432490000000000041e+00 7.184940000000000104e+00 4.467280000000000140e-01 5.456629999999999647e+00 4.437399999999999678e-02 7.376890000000000391e+00 6.306919999999999860e+00 3.980609999999999982e+00 7.622279999999999944e+00 8.670199999999999463e+00 2.362560000000000215e+00 1.045049999999999990e+01 1.414719999999999978e+00 2.586440000000000072e+00 7.466440000000000410e+00 1.884940000000000060e+00 6.426969999999999628e-01 1.309480000000000088e-01 7.591849999999999987e+00 8.247260000000000701e+00 8.293380000000000862e+00 8.590669999999999362e+00 5.176079999999999792e+00 5.860219999999999985e+00 1.121690000000000076e+01 2.371999999999999886e+00 9.764170000000000016e+00 5.101460000000000328e+00 1.136580000000000013e+01 6.872639999999999638e+00 1.110459999999999958e+01 6.465530000000000221e+00 3.102980000000000071e+00 1.009299999999999997e+01 1.747800000000000020e+00 2.821099999999999941e+00 1.160469999999999935e+01 3.813559999999999839e+00 2.623660000000000103e+00 4.355739999999999945e+00 6.424690000000000012e+00 8.960570000000000590e+00 4.725839999999999819e+00 8.082850000000000534e+00 9.880079999999999529e+00 7.467430000000000234e+00 1.109360000000000035e+01 4.843119999999999870e+00 4.287739999999999885e-01 7.169830000000000148e+00 8.694649999999999324e+00 6.329279999999999795e+00 1.550489999999999924e+00 1.113930000000000042e+01 4.565870000000000206e-01 4.512660000000000338e+00 9.111810000000000187e+00 7.525389999999999802e+00 8.618059999999999832e+00 1.089339999999999975e+01 8.742509999999999337e+00 2.348899999999999988e+00 1.035870000000000068e+01 6.358399999999999608e+00 3.297379999999999978e+00 1.025050000000000061e+01 3.723720000000000141e+00 2.110829999999999984e+00 5.166030000000000122e+00 5.950199999999999712e+00 2.341190000000000104e+00 1.096069999999999922e+01 3.265289999999999804e+00 1.022710000000000008e+01 1.066910000000000025e+01 3.264159999999999950e+00 5.554339999999999833e+00 2.953850000000000087e+00 1.719950000000000090e+00 1.454360000000000097e+00 4.134970000000000034e+00 8.345299999999999940e+00 7.585069999999999979e+00 7.884979999999999656e+00 3.601750000000000007e+00 4.253919999999999924e+00 3.939569999999999794e+00 7.764370000000000438e+00 1.177200000000000024e+01 5.244999999999999662e-01 5.581469999999999487e-01 9.968420000000000059e+00 5.417760000000000353e+00 3.049739999999999895e+00 3.856759999999999966e+00 8.483800000000000452e+00 1.125329999999999941e+01 4.138729999999999798e+00 6.421540000000000248e+00 7.810609999999999609e+00 6.038330000000000197e+00 6.485890000000000377e+00 6.579379999999999562e+00 9.287319999999999354e+00 2.909689999999999888e+00 3.068070000000000075e+00 1.016610000000000014e+01 1.284640000000000004e+00 6.184440000000000381e+00 3.040090000000000181e+00 8.645960000000000534e+00 1.013790000000000013e+01 9.172480000000000189e+00 1.201980000000000004e+01 2.118090000000000028e+00 6.527899999999999814e-01 5.142890000000000406e+00 6.403140000000000498e-01 1.165349999999999930e+01 1.430749999999999966e+00 8.391899999999999693e+00 4.684610000000000163e+00 8.986330000000000595e+00 1.117440000000000033e+01 2.077350000000000030e-01 1.220069999999999943e+01 3.596239999999999881e+00 7.754570000000000185e+00 6.382480000000000153e+00 8.123879999999999768e+00 1.180739999999999945e+01 2.114539999999999864e+00 1.008990000000000009e+01 7.086369999999999614e+00 2.866270000000000095e+00 6.407099999999999795e+00 8.616910000000000736e+00 9.520049999999999457e+00 2.153199999999999906e-02 6.888490000000000002e+00 8.761210000000000164e+00 1.580119999999999969e+00 9.890209999999999724e+00 3.341709999999999958e+00 4.725080000000000169e+00 7.618549999999999489e-01 4.416940000000000310e+00 8.330040000000000333e+00 3.469969999999999999e+00 2.257870000000000044e+00 2.300440000000000040e+00 3.777289999999999814e+00 5.779749999999999943e+00 3.640670000000000073e+00 8.755760000000000431e+00 6.602050000000000196e+00 4.392210000000000392e+00 6.388329999999999842e-01 1.104039999999999999e+01 9.575770000000000337e+00 5.504299999999999748e+00 1.352330000000000032e+00 8.062079999999999913e+00 7.485880000000000312e-01 5.084270000000000067e+00 5.697720000000000340e+00 5.140699999999999825e+00 1.073339999999999961e+01 6.878049999999999997e+00 6.209220000000000184e+00 9.263329999999999620e-01 1.179139999999999944e+01 2.099009999999999820e+00 2.411369999999999791e+00 1.008120000000000083e+01 1.013899999999999935e+01 4.798729999999999940e-01 1.862669999999999881e-01 6.386910000000000309e+00
6.497600000000000264e+00 9.466569999999999707e-01 2.095299999999999940e-01 6.788859999999999895e-01 9.840429999999999566e+00 2.751189999999999802e+00 9.070489999999999498e+00 1.125179999999999936e+01 6.477800000000000225e+00 1.094159999999999933e+01 1.447519999999999918e-01 1.170589999999999975e+01 5.864309999999999690e+00 7.421450000000000102e+00 6.961520000000000152e+00 2.016099999999999781e+00 2.106339999999999879e+00 2.953160000000000007e+00 1.001880000000000059e+01 3.950839999999999907e+00 1.149649999999999928e+01 1.129989999999999917e+01 9.194499999999999673e+00 1.149709999999999965e+01 4.250060000000000393e+00 2.314410000000000078e+00 4.391659999999999897e+00 3.433330000000000215e+00 6.447980000000000267e+00 1.109399999999999942e+01 6.012229999999999741e+00 6.886809999999999654e+00 1.039230000000000098e+00 5.768670000000000186e+00 1.740939999999999932e+00 9.174580000000000624e+00 2.561399999999999899e+00 9.377100000000000435e+00 5.486530000000000129e+00 6.262400000000000411e+00 1.166799999999999926e+01 2.494880000000000209e+00 7.278500000000000192e+00 2.869650000000000256e-01 5.264170000000000016e+00 9.213369999999999393e+00 3.228099999999999969e+00 5.174009999999999998e+00 3.491560000000000219e+00 1.129879999999999995e+01 3.802420000000000133e+00 4.627819999999999823e+00 4.221580000000000332e+00 7.529700000000000060e+00 1.066520000000000046e+01 5.704930000000000057e+00 4.317289999999999850e+00 9.575989999999999114e+00 8.790219999999999700e+00 9.771150000000000446e+00 7.775489999999999569e+00 2.147330000000000183e+00 2.044560000000000155e+00 7.537420000000000231e-01 6.129199999999999926e-02 3.808930000000000149e+00 6.996719999999999828e+00 3.510839999999999961e+00 7.960149999999999615e+00 9.280400000000000205e+00 4.770369999999999777e+00 1.676830000000000043e+00 9.717750000000000554e-01 3.889310000000000045e+00 9.067320000000000491e+00 9.007509999999999906e+00 1.172250000000000014e+01 3.104359999999999786e+00 4.524420000000000108e+00 6.389009999999999856e+00 4.369939999999999714e+00 8.725529999999999120e+00 7.339459999999999873e+00 6.944309999999999761e+00 4.714999999999999858e+00 1.039419999999999966e+01 9.663190000000000168e+00 5.775210000000000399e+00 9.308519999999999683e+00 3.111679999999999779e+00 1.972280000000000033e+00 1.188460000000000072e+01 1.128930000000000078e+01 4.201509999999999856e+00 7.459550000000000125e+00 2.737769999999999815e+00 1.165789999999999971e+01 5.837419999999999831e+00 1.163010000000000055e+01 7.853279999999999816e+00 7.292589999999999684e+00 4.373129999999999740e+00 6.530339999999999812e+00 3.112509999999999888e+00 5.367049999999999876e+00 1.177229999999999954e+01 6.991319999999999979e+00 6.014669999999999739e+00 4.091319999999999624e+00 3.086650000000000116e+00 1.037100000000000044e+01 3.435200000000000031e+00 5.112099999999999866e+00 1.142800000000000038e+00 5.257819999999999716e-01 4.610079999999999956e+00 2.847309999999999786e+00 8.645889999999999631e+00 5.701240000000000308e+00 9.887740000000000862e+00 9.182389999999999830e+00 7.406920000000000393e+00 1.348019999999999996e+00 1.054899999999999949e+01 9.591739999999999711e+00 4.170429999999999637e+00 1.190820000000000078e+01 7.045530000000000292e+00 9.139170000000000016e+00 6.643270000000000008e-01 2.526600000000000179e+00 1.163700000000000045e+01 3.314599999999999991e+00 1.021589999999999998e+00 7.265889999999999738e+00 6.854669999999999597e+00 4.595209999999999795e+00 1.180770000000000053e+01 1.096390000000000065e+01 1.140199999999999925e+01 8.779849999999999710e+00 1.119250000000000078e+01 1.712620000000000031e+00 6.229969999999999786e+00 3.356040000000000134e+00 9.763170000000000570e+00 3.131140000000000034e-01 3.684769999999999879e+00 1.202260000000000106e+00 8.931000000000000050e-01 7.154090000000000060e+00 1.100559999999999938e+01 8.809350000000000236e+00 5.738669999999999938e+00 3.337060000000000137e+00 2.156839999999999868e+00 1.132109999999999950e+00 7.750460000000000349e+00 1.245710000000000095e+00 1.996250000000000080e+00 3.319760000000000044e+00 6.043890000000000207e+00 7.893970000000000375e+00 1.089980000000000082e+01 2.967420000000000058e-01 9.957390000000000185e+00 4.675200000000000244e+00 7.673390000000000377e+00 1.323730000000000073e+00 1.104429999999999978e+01 6.679579999999999629e+00 1.067580000000000062e+01 1.732299999999999951e+00 2.231689999999999952e+00 5.345509999999999984e+00 9.899279999999999191e+00 5.727319999999999744e+00 2.567359999999999864e+00 5.924229999999999663e+00 7.995090000000000252e+00 6.161609999999999587e+00 8.109949999999999548e+00 9.404059999999999420e+00 2.163879999999999804e+00 1.027149999999999963e+01 9.363410000000000011e+00 1.773090000000000055e+00 6.561090000000000089e+00 3.991639999999999855e+00 8.925290000000000390e+00 1.982290000000000108e+00 1.015879999999999939e+01
1.094849999999999923e+01 4.828299999999999592e+00 9.330429999999999779e+00 5.209419999999999717e+00 1.749290000000000012e+00 3.367070000000000007e+00 4.252790000000000070e+00 7.356349999999999945e+00 9.715840000000000032e+00 7.136989999999999945e+00 2.543979999999999908e+00 1.117159999999999931e+00 2.879919999999999813e+00 5.997690000000000410e+00 1.145850000000000080e+01 3.687100000000000044e+00 1.073820000000000086e+01 9.621190000000000353e+00 9.137460000000000804e+00 3.620359999999999800e+00 -1.035230000000000039e-01 1.074189999999999934e+01 3.294020000000000170e+00 5.891409999999999592e+00 7.328960000000000363e+00 7.654899999999999594e+00 6.719560000000000421e+00 5.685999999999999943e-01 4.600279999999999703e+00 1.753349999999999964e+00 1.011609999999999898e+00 5.021149999999999558e+00 5.196180000000000021e+00 9.505089999999999151e+00 5.714730000000000310e+00 9.998759999999999870e-01 7.637800000000000145e-01 1.047269999999999968e+01 4.974020000000000330e+00 9.947829999999999728e+00 6.889940000000000175e+00 5.637360000000000149e+00 1.027480000000000082e+01 3.842369999999999841e+00 3.096420000000000172e+00 5.779609999999999470e-01 9.411580000000000723e+00 1.006659999999999933e+01 2.918769999999999865e+00 4.291970000000000063e+00 1.516729999999999912e+00 8.493769999999999598e+00 8.467430000000000234e+00 4.084179999999999922e+00 7.866699999999999804e+00 1.052810000000000024e+01 2.469450000000000145e+00 6.974319999999999631e+00 5.059899999999999842e+00 1.440549999999999997e+00 2.196140000000000037e-01 1.047150000000000070e+01 1.921470000000000011e+00 8.873920000000000030e+00 1.103669999999999973e+01 9.129170000000000229e+00 5.834830000000000183e+00 4.347780000000000200e+00 6.552069999999999617e+00 2.198999999999999844e+00 1.417229999999999990e+00 1.459680000000000089e+00 2.103120000000000100e+00 8.578129999999999811e+00 1.712480000000000113e-01 4.751920000000000144e+00 1.172830000000000039e+00 3.074009999999999798e-01 9.141230000000000189e+00 4.324459999999999971e-01 2.502930000000000099e+00 7.782210000000000072e+00 5.393060000000000187e+00 1.051500000000000057e+01 3.429330000000000211e+00 7.111539999999999528e-01 4.818920000000000314e+00 -9.386000000000000246e-03 1.188700000000000045e+01 1.008709999999999951e+01 5.998149999999999871e+00 9.244799999999999685e+00 1.168319999999999936e+01 5.062459999999999738e+00 4.374740000000000073e+00 3.113999999999999879e+00 7.934849999999999959e+00 8.081129999999999924e+00 1.252369999999999983e+00 1.066469999999999985e+01 1.064579999999999949e+01 3.887100000000000222e+00 7.978019999999999889e+00 8.552110000000000767e+00 9.883070000000000022e+00 1.167109999999999914e+01 2.014660000000000117e+00 1.362370000000000081e+00 5.437540000000000262e+00 4.511129999999999640e+00 1.101219999999999999e+01 2.635629999999999917e+00 5.041800000000000281e+00 8.808429999999999538e+00 2.196369999999999989e-01 6.740479999999999805e+00 7.454699999999999882e+00 4.657230000000000203e+00 7.285180000000000433e+00 1.379119999999999902e+00 6.916859999999999786e+00 4.405049999999999799e-01 8.090830000000000410e+00 5.283629999999999605e+00 1.783120000000000038e+00 5.679960000000000342e+00 1.239530000000000065e+01 5.842769999999999797e+00 1.151120000000000054e+01 8.162050000000000693e+00 5.736620000000000275e+00 4.026570000000000427e+00 9.418189999999999173e+00 2.314630000000000187e+00 9.454359999999999431e+00 3.753639999999999866e+00 9.642929999999999779e+00 5.139420000000000321e+00 2.781480000000000063e-01 8.071350000000000691e+00 2.203870000000000218e+00 6.338569999999999816e+00 1.065740000000000087e+01 4.352710000000000079e+00 8.319419999999999149e+00 5.257480000000000153e+00 7.994229999999999947e+00 1.068410000000000082e+01 9.855729999999999436e+00 1.163030000000000008e+01 1.978969999999999896e+00 9.142150000000000887e+00 7.533660000000000245e+00 6.143110000000000070e+00 9.482450000000000045e+00 7.943159999999999776e+00 8.968949999999999534e+00 1.014550000000000018e+01 6.263460000000000250e+00 3.038710000000000022e+00 3.451639999999999819e+00 4.518790000000000084e+00 3.849629999999999885e+00 7.141090000000000160e+00 6.262830000000000119e+00 8.586809999999999832e+00 1.635820000000000052e+00 4.651370000000000005e+00 1.104679999999999929e+01 1.125719999999999921e+01 7.765419999999999767e+00 3.016929999999999890e+00 1.115329999999999977e+01 4.990780000000000216e-01 1.509500000000000008e-01 1.236590000000000078e+00 4.730940000000000367e+00 2.778430000000000177e+00 6.499690000000000190e+00 3.464840000000000142e+00 2.053780000000000161e+00 1.556340000000000057e+00 1.049820000000000064e+01 1.265880000000000061e-01 2.681239999999999846e+00 7.869369999999999976e+00 1.881050000000000111e+00 7.531799999999999606e-01 7.361629999999999896e+00 7.173680000000000057e+00 1.178480000000000061e+01 1.182830000000000048e+01
1.159029999999999916e+01 1.433429999999999982e+00 7.631549999999999834e+00 1.107089999999999996e+01 6.566290000000000404e+00 3.338569999999999816e+00 1.222429999999999950e+01 7.097249999999999837e+00 5.596269999999999634e+00 1.594810000000000061e+00 8.914459999999999607e-01 7.131770000000000387e+00 9.991089999999999804e+00 2.423720000000000041e-01 3.612179999999999946e+00 8.075939999999999230e+00 5.496590000000000309e+00 3.688829999999999831e+00 6.586700000000000443e+00 3.432710000000000150e+00 7.174479999999999968e+00 5.799249999999999794e+00 1.077459999999999951e+01 9.070360000000000866e+00 1.924390000000000045e+00 3.205900000000000194e+00 4.947029999999999816e+00 1.115709999999999980e+01 1.139230000000000054e+01 9.834889999999999466e-01 5.497259999999999813e+00 9.816290000000000404e+00 6.044299999999999784e+00 5.797480000000000189e+00 6.686919999999999753e+00 6.872539999999999871e+00 9.999100000000000321e+00 4.708770000000000344e+00 5.226640000000000175e-01 1.145139999999999958e+01 7.876990000000000158e+00 1.176919999999999966e+01 3.934190000000000187e-01 4.928749999999999964e+00 1.022839999999999999e-01 6.655879999999999797e+00 6.898859999999999992e+00 9.501049999999999329e+00 3.260500000000000065e-01 1.166430000000000078e+01 3.818849999999999856e+00 1.078459999999999930e+01 9.066739999999999355e+00 1.890419999999999989e+00 1.013000000000000078e+01 1.145129999999999981e+00 9.982710000000000861e+00 4.452650000000000219e+00 4.920790000000000219e+00 8.462949999999999307e+00 3.297530000000000072e+00 9.286880000000000024e+00 1.127040000000000042e+01 7.628300000000000081e-01 1.001559999999999917e+01 1.152069999999999972e+01 3.386420000000000208e+00 8.247170000000000334e-01 4.670429999999999637e+00 6.994979999999999531e-01 9.896490000000000009e+00 1.905729999999999924e+00 9.080470000000000041e+00 7.310139999999999638e+00 1.887150000000000105e+00 1.222920000000000051e+01 2.769050000000000011e+00 1.032329999999999970e+01 1.043539999999999912e+00 6.087580000000000213e-01 1.012540000000000084e+01 8.958759999999999835e+00 5.095860000000000056e+00 5.869919999999999582e+00 4.451939999999999564e+00 8.761020000000000252e+00 9.142350000000000421e+00 9.568599999999999994e+00 2.267990000000000173e+00 5.070899999999999963e+00 1.811770000000000103e+00 7.275929999999999787e+00 1.023569999999999958e+01 5.272160000000000402e+00 1.010369999999999990e+01 3.008980000000000210e+00 8.183289999999999509e+00 8.254780000000000229e+00 4.473589999999999733e+00 2.645030000000000214e+00 9.413999999999999702e+00 3.795220000000000038e+00 6.803740000000000343e+00 3.351970000000000116e+00 4.423370000000000246e+00 8.187390000000000612e+00 9.085350000000000037e+00 7.666310000000000180e+00 7.904160000000000075e+00 1.157910000000000039e+01 1.918199999999999905e+00 5.281100000000000350e+00 7.997349999999999737e-01 2.545749999999999957e+00 5.398469999999999658e+00 6.946600000000000108e+00 2.329089999999999883e+00 8.324239999999999640e+00 1.147400000000000020e+01 5.776930000000000121e+00 5.092480000000000118e+00 5.802140000000000075e-01 1.121940000000000026e+01 4.256649999999999601e+00 4.401130000000000209e+00 1.636830000000000007e+00 2.447309999999999874e+00 1.169890000000000008e+01 4.700050000000000061e-01 6.867140000000000022e+00 8.372149999999999537e+00 1.165700000000000003e+01 9.377480000000000260e+00 2.387910000000000199e+00 3.777269999999999794e-01 2.219059999999999810e+00 6.455589999999999939e+00 6.432549999999999990e+00 3.169999999999999929e+00 2.851510000000000211e+00 9.411939999999999529e+00 3.868900000000000006e+00 4.945540000000000269e+00 4.945789999999999687e+00 9.239290000000000447e+00 4.697160000000000224e+00 8.807650000000000645e+00 1.209970000000000034e+01 3.857250000000000068e+00 6.455490000000000173e+00 4.477809999999999846e+00 6.708090000000000330e+00 1.106150000000000055e+01 7.339179999999999815e+00 4.395629999999999704e+00 1.309010000000000007e+00 7.880410000000000359e+00 1.874579999999999913e+00 8.529669999999999419e+00 1.137729999999999997e+01 6.887959999999999638e+00 8.846629999999999328e+00 1.503819999999999935e+00 9.745689999999999742e+00 7.774149999999999672e+00 1.122799999999999976e+01 9.658379999999999299e+00 5.077309999999999768e+00 1.823620000000000019e+00 7.231609999999999872e+00 1.440630000000000077e+00 1.226869999999999905e+00 5.097579999999999778e+00 3.580849999999999866e+00 1.112299999999999933e+01 1.002880000000000038e+01 8.461019999999999541e+00 1.839690000000000047e+00 3.035010000000000208e+00 7.789650000000000185e-01 5.435270000000000046e+00 3.775129999999999875e+00 1.067469999999999963e+01 9.215159999999999130e+00 1.018800000000000061e+01 1.091639999999999944e+01 5.161640000000000228e+00 7.652179999999999538e-01 6.869559999999999889e+00 1.129879999999999995e+01 2.318449999999999900e+00 2.848370000000000068e+00