-1.049667310460873159e+04
-1.049675648242817442e+04
-1.049447115713027779e+04
-1.049491034476439381e+04
-1.049673811576970729e+04
-1.049784943820741501e+04
-1.049121477124171724e+04
-1.049541580412025905e+04
-1.048919194978759697e+04
-1.049093085129999236e+04
-1.049415815818921510e+04
-1.049710620264173667e+04
-1.049219927911715058e+04
-1.049558699789758066e+04
-1.049470568476348126e+04
-1.049291976577249443e+04
-1.049731948982051472e+04
-1.048948218735784576e+04
-1.049408710726606114e+04
-1.049479754416790092e+04
-1.048917190590105929e+04
-1.049445673910401274e+04
-1.049393507703847717e+04
-1.049574560138496417e+04
-1.049527854093710994e+04
-1.049474545675864101e+04
-1.049669193944513063e+04
-1.049718233550178411e+04
-1.049261766884071039e+04
-1.049475049629545538e+04
-1.049100468443780301e+04
-1.049128085609125083e+04
-1.049488790517757661e+04
-1.048949587864615205e+04
-1.049426047885467051e+04
-1.049254574716783645e+04
-1.048968131537956833e+04
-1.049370561102620377e+04
-1.049490167770462722e+04
-1.049564102201181777e+04
-1.049700312200318695e+04
-1.049786768725116963e+04
-1.049505111975969703e+04
-1.048901534775229811e+04
-1.049659749938723508e+04
-1.049603642537369342e+04
-1.049678793126526034e+04
-1.049831194966022849e+04
-1.049133239667917042e+04
-1.049308887160538143e+04
-1.049497733231219536e+04
-1.049428478565893965e+04
-1.049669843531760125e+04
-1.049399540291952326e+04
-1.049594717594768372e+04
-1.049362859874240894e+04
-1.049329571479126207e+04
-1.049507896759973664e+04
-1.049514743404544242e+04
-1.049255929374974403e+04
-1.049126716969352856e+04
-1.049627886481107089e+04
-1.049428131523956472e+04
-1.049398599302373441e+04
-1.049355537649415237e+04
-1.049494797684201694e+04
-1.049720888577789447e+04
-1.049403712124386038e+04
-1.049532988058086994e+04
-1.049295252695787531e+04
-1.049634832975601967e+04
-1.049437854629918002e+04
-1.049371182510491963e+04
-1.049104536346902387e+04
-1.049437256548421647e+04
-1.049546155641063342e+04
-1.049389354226235446e+04
-1.049429053626853965e+04
-1.049444874716122285e+04
-1.049679371724299199e+04
-1.049407280353198803e+04
-1.049682004499213872e+04
-1.049554241251918756e+04
-1.049446848558244528e+04
-1.049795964055898003e+04
-1.049450046103090608e+04
-1.049457173825289647e+04
-1.049577256172095986e+04
-1.049511251938045098e+04
-1.049398584901252798e+04
-1.049272322356649784e+04
-1.049506030892154558e+04
-1.049213555284748327e+04
-1.049560640500512272e+04
-1.049429905934367162e+04
-1.049292878987320546e+04
-1.049319928800685193e+04
-1.049336599711226881e+04
-1.049545661954872594e+04
-1.049834106085657731e+04
-1.049194680664528096e+04
-1.049080952008570239e+04
-1.049420092807360015e+04
-1.049517461054175328e+04
-1.049337280942649159e+04
-1.049155327537216363e+04
-1.049424299871142102e+04
-1.049605787148905074e+04
-1.049056450322014825e+04
-1.049541755744850343e+04
-1.049429782923308267e+04
-1.049328844546286928e+04
-1.049544857293286077e+04
-1.049512599177789161e+04
-1.049583757059304844e+04
-1.049643807056076366e+04
-1.049128778134095228e+04
-1.049049449711877969e+04
-1.049245178457260226e+04
-1.049302564090346095e+04
-1.049204055644730033e+04
-1.049721922998193622e+04
-1.049153334982326487e+04
-1.049510868369330092e+04
-1.049145642483894153e+04
-1.049341308998729437e+04
-1.049437198264182371e+04
-1.049605883220612668e+04
-1.049163362193200373e+04
-1.049979875892098062e+04
-1.049505688385373287e+04
-1.049707586779943813e+04
-1.049382171590235521e+04
-1.049419731870368014e+04
-1.049418159473603373e+04
-1.049343536632598443e+04
-1.049674022444400907e+04
-1.049496275254166358e+04
-1.049756477742673815e+04
-1.049620129965810156e+04
-1.049468618467637862e+04
-1.049457289552369366e+04
-1.049251775885628012e+04
-1.049357632079755786e+04
-1.049467830302911534e+04
-1.049519849811585300e+04
-1.049485688555547495e+04
-1.049325180420572906e+04
-1.049665351274689056e+04
-1.049635471114772554e+04
-1.049733397744973627e+04
-1.049635219947787118e+04
-1.049295703603268339e+04
-1.049786168060672753e+04
-1.049270115322550737e+04
-1.049287020619672876e+04
-1.049452726408291892e+04
-1.049193382810656112e+04
-1.049546550148306414e+04
-1.049492194944360563e+04
-1.049497534307523892e+04
-1.049069496526899820e+04
-1.049416854555450482e+04
-1.049493810989220401e+04
-1.049275717611410255e+04
-1.049291543668028862e+04
-1.048899794335718070e+04
-1.049248981534425366e+04
-1.049916086758800157e+04
-1.049689584444621141e+04
-1.049319010436799363e+04
-1.049661391763924257e+04
-1.049527296049960387e+04
-1.049445654824010489e+04
-1.049595256477541079e+04
-1.049180774106595163e+04
-1.048849694439278210e+04
-1.049256548786846906e+04
-1.049224884046621446e+04
-1.049567445855878759e+04
-1.049520064483440547e+04
-1.049646643765322005e+04
-1.049047110465914193e+04
-1.049551813315222716e+04
-1.049720613866255917e+04
-1.049578638210076133e+04
-1.049365315266647121e+04
-1.049432556395396387e+04
-1.049641803684474326e+04
-1.049514795865368251e+04
-1.049865009591858143e+04
-1.049499210755490458e+04
-1.049517913105156185e+04
-1.049288974243823941e+04
-1.049588925873280459e+04
-1.049327195671861773e+04
-1.049460898013842052e+04
-1.049037418768569478e+04
-1.049602614105237444e+04
-1.049691369332295653e+04
