2.866538338906747807e-01 -1.489396351420583686e+00 -3.850566366647583116e-01 2.653378460382995185e-01 -7.224424496531977047e-01 -1.310645546477553769e-01 -2.364540731468822710e-01 -3.339353925486777674e-01 -3.582947437886365272e+00 -3.865735875287368839e-01 4.094054978038271786e-01 3.666737632964963689e-01 1.846440304944291011e+00 2.381467846228297436e+00 3.432689083933909036e+00 -2.290230707959143297e-01 1.439334401806129093e-01 -2.139008704542586514e-01 -1.660192163188783376e-01 6.133263742350018866e-02 -1.675896461285701286e-02 1.539726209984235927e+00 -1.264311182223431862e+00 1.289540903304871922e+00 -8.007371688391384801e-01 -8.121502957632082964e-01 -2.878635893491818809e+00 1.282536704078345302e+00 3.519747665348591514e-01 -4.630942455347704656e-01 -9.371393336455713374e-01 -6.827770127736311478e-02 -7.269531930358487104e-01 2.995592290883941078e-01 -2.122579355354750341e-01 -1.979600308666864539e-01 -8.910456246471583075e-01 -3.389881244773063074e-01 1.583146485917623636e-01 -5.842122305005127414e-01 -1.950001769097165494e-01 5.200107561718813054e-01 1.518704356333283156e+00 -9.426980586759472480e-01 -5.852252451452711890e-01 -5.874831879397560686e-01 -1.774734808934967933e-01 -7.428019871303184751e-02 -1.537725377505679558e-01 -1.006585858419145607e+00 1.233836410697048414e-01 1.269291923263600186e-01 -2.754859902080007417e-01 2.458437418845942357e-01 -3.870898650431215532e-02 2.117843383335346052e-01 2.695127519262846771e+00 -1.771695765000692174e-02 5.581540999811506198e-01 1.442697404738475103e-02 8.625891691008142903e-01 -3.572686679398286991e-01 -6.130389249017936804e-01 -8.955872212677208621e-02 -1.416508147957989128e-01 -1.028207293326844241e+00 1.270186667163031580e-01 -7.802783867800691317e-03 -6.894721654004114242e-02 3.652061776131759752e-01 -4.378691524390170703e-02 -5.362909813764792089e-02 -1.292889508059525683e-01 7.090896825057626529e-01 1.724071735401872196e+00 -6.072950804439490868e-01 4.036991914521081415e-01 -2.599117899309426605e-01 -5.905011488281257659e-01 -2.053077294752935281e-02 4.061021444647767153e-01 -1.046132510332753229e+00 7.769323531285744489e-01 4.143836677408363478e-01 2.057232197458341294e-01 3.705885249668249698e-02 4.881429609537970005e-01 -9.457396737133824116e-01 -1.425419591508073893e-03 4.816401268433311844e-01 1.517279965183039037e-01 1.406471589665401201e+00 4.621933309877566676e-01 -8.831153140626569753e-01 3.630017137644043212e-01 -7.137073837798399434e-02 8.405938957937557632e-01 7.285308219343865632e-01 6.080679540536304550e-01 2.818931792809410974e-01 -4.079785355504235156e-01 -2.261274944179265944e-01 7.028033352813086720e-01 1.477834100513275295e-01 3.633806943700829684e-01 2.053504097877376644e-01 3.795076818263875551e-01 -4.533327952802257976e-01 -6.738604270172277033e-02 -2.661024406958079513e+00 5.916262635706293072e-02 4.378115597282490334e-01 -7.775237068552102171e-01 -4.535821922866765665e-01 -2.537442276724477530e-01 -4.668146318062571520e-02 -2.550848008596993677e-01 9.894581976132471590e-02 1.713897365979946338e-02 -1.490015987281971821e+00 7.772228877855738016e-01 1.789901746471595168e+00 1.069800543355243105e+00 -6.442156075906619629e-03 2.105620358916100998e-01 1.028960626552514884e-01 1.308259562745736626e-01 -9.949192207235701968e-02 -6.028398728895385528e-01 -3.214604000198228451e-01 1.044586248892758640e+00 1.077340560480164910e+00 1.403171835870773432e+00 -1.536775097778007915e+00 -5.077013426864843693e-01 -6.373502479347369354e-01 2.079432130576878812e+00 -1.600943661986200250e-01 -2.170952090193554174e-01 5.374695750646959480e-01 -1.574487010477148841e-01 6.605518828441324652e-01 4.885080576024155574e-01 -5.626704997907521211e-01 -5.071850651720997138e-01 4.088989904814478438e-01 4.778467212421207422e-01 2.037141597371681379e-01 6.279873186698815557e-01 5.702825078041338092e-01 -5.498777189114094632e-01 1.263969225503246641e+00 1.004555715364573582e-01 -4.527635530407599362e-01 -4.120799593101163172e-01 6.702449417546401111e-01 1.307334479829025398e+00 -4.262158844798698554e-01 7.557089249899336114e-02 -8.598709988408174132e-01 1.386585649390220387e-01 -1.333395181451546785e+00 -5.165125132133570052e-01 1.686106826151857474e+00 -2.927972277794723202e-02 3.233115942945086196e-01 -4.221792525197910484e-01 -4.944365072670968142e-01 1.604676903773483154e-01 -4.356019536731587927e-01 -3.168812652931347618e-01 -3.877532096582172322e-02 -5.380290471121565443e-02 -6.461799304043563952e-02 -7.258928700929593303e-01 -6.085358948286204717e-01 8.752739636474670126e-01 -1.453790172208897724e+00 -4.577031050083167685e+00 -3.075763401155529042e+00 9.400019999031200557e-01 -5.286943999820532536e-01 1.460454471597766757e+00 -1.051946288796530432e-01 2.413893056611314591e+00 7.185503136906706834e-01 -7.831878471151170196e-01 -2.789693207682011900e-01 6.553999063335555486e-02 -5.353700122248231663e-01 -9.353416183165985665e-02 4.161998950125558872e-01
-3.395871915134199281e-01 -8.535856800576271386e-01 -8.171166386256849545e-01 -8.072759983938342376e-01 4.575082668109060058e-01 3.443571020945270234e-01 1.559685683809772128e+00 8.890144531513225479e-01 1.218708553928442351e+00 4.965329847831784771e-01 -2.618899452796339844e+00 -1.542800735142110247e-01 2.084650441548965560e-01 1.240531563323828551e-01 6.934661170480461712e-01 -2.307169135572518515e-01 -6.172827877765107996e-01 -2.405267005511910541e-02 4.037357011169699361e-01 1.154471598376212854e-01 -7.162260364346764163e-01 1.255372999200490280e+00 1.823943152300539827e+00 1.933835700872839736e+00 1.092420594730008215e-01 6.486327628183151395e-02 7.242072548617315420e-01 -5.584657176840560622e-01 -2.308387838470019743e-02 -1.496447858945241238e+00 -5.900414355832455104e-01 6.737169594609396794e-01 6.288054436951664439e-01 9.448032779427704975e-02 3.882720582757611671e-01 -1.375226515632495816e-01 3.673746460177176876e-01 -2.738790507334470589e-02 3.875089548580851195e-01 -1.020231217106107646e+00 -1.706436024611698576e-01 -6.029699707093983951e-01 -1.284805959726731117e-01 2.340007265122917290e-01 5.166163857809920046e-01 -9.896798267055775256e-01 -1.798152416509743445e-01 1.934338608650796043e-01 -1.126433718424200592e+00 1.279872012764061484e+00 1.846134343668335842e-01 1.057159971782930086e+00 -5.961287794231707737e-01 -6.146062693876943595e-01 1.522987814196653522e-01 2.306320671529953903e-01 -3.006802300658427754e-02 4.037413575439204316e-01 -1.768004175084589624e+00 4.371235325228241542e-01 9.161457621293704889e-01 9.743611940825523954e-01 -2.673020145858043151e+00 1.870837502822754184e-01 -2.159541534372643456e-01 1.917626438115438148e-01 1.175915627165920352e+00 7.810497177278548191e-03 -6.031571470193944906e-01 -1.170145043235219395e+00 6.639411110287030127e-01 9.157395278302031816e-01 -5.462005271729988287e-01 -6.123632389915333318e-01 9.733800611169689532e-01 -2.208320503510614596e-01 5.341004014847677839e-02 1.576967610805227960e+00 6.707725321229256465e-01 -1.293475719579842975e-01 -1.268527277184028579e+00 -6.766413321943113290e-01 2.521532290374816632e-01 1.707245922106873648e+00 -5.197536458559527672e-02 -2.315802899981399821e-01 -2.687738683003691453e-01 -1.189222628677120419e-01 2.284671982928767331e-01 -1.802646704832174818e-01 -1.627148345385641681e-01 -3.974056451388082167e-01 6.829919569977475069e-01 -7.485895403418709737e-01 2.284821106912005850e-01 2.569948219746696516e+00 -5.570654949035088732e-01 1.110552014209292004e-01 -3.767293477524632506e-01 -1.916150624902007993e-01 3.947455818102110214e-01 -2.301661832605328140e-01 8.118669601950551096e-01 1.446534519093392923e+00 1.008618058356245267e-01 -1.509493122154825784e+00 3.215524455129252779e-01 -5.493455005574372496e-01 -7.512280064039301708e-01 -1.189211315823219595e+00 -2.173816299112998618e-01 2.990244396312626701e-02 -1.273896769021881203e+00 -1.379582478604957752e+00 2.827748105542601920e+00 -1.433533993078780211e-01 -1.258880498130388048e+00 -6.448696962343843930e-01 8.975772551130081212e-01 -2.750658719517734552e-01 -6.307502261248500997e-01 -2.546266302767146161e-01 -5.029509724893878042e-01 3.684365116225027381e-01 9.266615740508495069e-02 -7.536479286974500091e-01 -2.752345363190226157e-01 2.860223709547541349e-01 -7.272889791084514721e-01 7.155518931863116272e-01 -1.135360588593241182e+00 -3.095556781716974903e-01 3.685564792959150182e+00 -5.700094566486175740e-01 1.357747642135038735e+00 -3.676060453020534025e-02 -2.970786287603151554e-01 -3.053292987984634332e-01 1.842354307803553803e+00 2.450261310799413117e+00 -1.339296891643371623e+00 5.998897891245740244e-01 -5.290569255275127114e-01 -2.445243031653118848e+00 -2.485917369412389555e-01 6.784842989388875090e-01 4.841037578905588723e-01 -9.000455141459223762e-02 -1.035295824736995052e-01 -1.430763372314333592e+00 1.886665213871318025e-01 4.610718157896762093e-01 -8.404972223149667077e-01 -1.149647180408128966e+00 1.034161454023118321e+00 9.643390339676561895e-01 -4.375390227933647624e-01 -4.333378402310916755e-01 1.557427226794655395e+00 2.802415026114158381e-01 1.315535784686515386e-01 -7.638387531795953755e-02 -3.100832685399829702e-01 -6.309949951456141071e-02 7.547375622163554620e-01 -1.304641506379989435e+00 2.236011798756755375e+00 -1.023014693386350427e+00 1.497110175119073183e+00 -3.156728468082704020e-01 -1.137968715638020711e+00 -1.535863898818357054e-01 -1.109956032496969502e+00 1.708708879804507474e-01 -6.046103345250228300e-02 -5.067335794573291780e-02 -3.452955547476663778e-01 -5.244145416631060819e-01 -5.276345912597957266e-01 -1.377375957873658574e-01 6.430395850056047635e-01 -6.186896954252720793e-01 -3.861354715503946267e-01 -2.137486611472289688e+00 -1.215967757960643603e+00 1.910551276441715629e+00 -2.903366820560357997e-01 -4.275795975955550832e-01 1.334216391800622903e+00 -1.756789023103784375e+00 -5.313950867405671241e-01 1.119759648843326350e+00
1.288236325561850082e+00 1.599559380045240786e+00 -4.626252763185167427e-01 -2.591018924357676445e-01 -3.863519584364065174e-01 -3.707741586149254087e-01 -4.790839360823691967e-02 -1.523414617321094955e-01 9.706238385302147220e-01 -3.312311062457409250e-01 5.639082288516322761e-01 -6.987620753355431313e-01 -2.573566276112443929e-01 2.163578680553354339e+00 2.000621648097185568e-01 -4.449808237776017167e-02 -1.778318926739012595e-01 7.573544310118764111e-02 1.792874455944361234e+00 -4.645577174530360343e-01 -1.273822721250893686e+00 1.512749681416377112e-01 6.807586967935916888e-01 3.009815633561110371e-01 -1.909733665637062483e+00 -5.117770554145842921e-01 -1.412899861784247646e+00 4.950211761255184917e-01 -5.110185799825950337e-01 2.325459963447678094e-02 6.386327141905887572e-01 2.925514303174446273e-01 4.558529905969578300e-01 5.700936345660525539e+00 2.187050795515106394e+00 -2.781791693452894787e+00 -8.587638818204289259e-02 -3.759456755095129665e-01 -3.429728201535675036e-01 -1.750319613334389568e-01 -5.459362177682242079e-01 8.598694561789219093e-02 2.277267205830023622e-01 -1.720865055541610955e+00 2.602470617829135136e-01 1.066442168408583857e+00 -3.001834929354687542e-01 -8.344232482114698479e-01 7.292687285411015852e-01 2.624103879811366946e-01 1.826248403393155417e+00 -4.580841939185861245e-01 1.078036300995067531e+00 -5.406376883775679820e-01 1.517845607878081649e-01 -4.065788269905082353e-01 1.253777886800469532e-01 -5.162332914102586434e-01 -6.349298114205852439e-01 -7.855830868183075744e-01 -8.190305678174572002e-01 -4.392344082165978159e-01 1.144594448479500093e+00 -8.848004150732529105e-01 9.583478493858885172e-02 -1.012202690380921810e+00 2.081405709361946466e-01 -4.174417378384909783e-01 1.000329335991339441e+00 -1.363286312560772207e-01 -3.171070081505200644e-01 3.320384326377566753e-01 -2.682107967084854661e-01 -3.138550768746553588e-01 1.135437207467387966e+00 1.154976048816064749e+00 -4.443128511768192901e-01 6.111620195955150825e-01 -4.228148292207665193e-01 1.949107025197734488e+00 1.569915589059938665e-01 -4.582580004921538164e-02 3.317520117458122031e-01 2.660289585675155166e-01 -1.053344968915181784e-01 -4.972739767136847289e-01 -5.572763253625703239e-01 -2.617773823833204894e-01 -1.334392255256718063e-01 -2.207343484310085938e-02 5.803596895266387862e-02 1.897319865363398805e-01 -1.716313688729043108e+00 6.726262975007706313e-01 9.098265047844776854e-01 4.612811035868420451e-01 3.277315777356369697e+00 -2.038010630239520116e-02 6.966116046531164452e-01 -2.615487598903967648e+00 -6.541472648743514862e-01 -1.009183186830656220e+00 4.172792441188241108e-01 -4.112309810469200744e-01 -1.818937214449410367e-01 -2.716800890454362793e+00 -2.158810312634142470e+00 -6.230970804609199387e-01 -9.379132356965163009e-01 3.996435333286506020e-01 -1.756173501007451287e+00 -4.311627383803990021e+00 3.024671467615464016e-01 4.874414097457541395e+00 2.352317707049577933e-01 -3.679942818791055448e-01 -4.327793966248947855e-01 -8.803971438026600427e-02 -7.233716463349635362e-01 -7.488147689786244232e-01 -3.291834796896856985e-01 -1.543307756685121213e+00 -6.747885952577300506e-01 -3.483109445328768095e-01 2.028754658866090965e-01 -4.568798891987765898e-02 1.277067967658544134e+00 5.929575807865075099e-01 -1.069592283999341031e+00 2.688206623778681137e-01 -1.574440730620281781e-01 5.587521385760005344e-03 5.213616137717700383e-01 7.003103936580651334e-01 6.418897876727720497e-01 -1.982891320710749861e-01 -1.787790870777821589e-02 5.374207241046693451e-01 2.159243286406166695e-01 3.341493083315303925e-01 -3.551721904237470362e-01 4.846376217505529382e+00 1.183062779728103253e+00 -1.000565363261362029e-01 5.252794607658899384e-01 -4.795210236194477615e-01 3.222600131023607428e-01 -1.211805656166391465e+00 -1.271485588479102757e+00 -1.406511698874685912e-01 1.276200477452601456e+00 3.490678773029705639e-01 7.328549032276735486e-01 -1.268813698075972884e-01 4.768167373165109746e-01 2.523805145567625252e-01 -8.182139854540680934e-01 -7.193591827445821041e-01 5.655398509165150862e-03 -6.600037236505726934e-01 1.536852745093418182e+00 -6.815171722255811138e-02 -5.027113456749423559e-01 1.162504753087085563e+00 2.377851332524445471e+00 -1.589620523672705399e-01 -4.170175058172088250e-02 -3.130107265971458497e-01 8.127246802089926891e-01 2.809542124071698899e-01 -1.118641733189668974e+00 4.016381951596245670e-01 5.153236351125031200e-01 -5.083194358859767226e-01 -2.794452319629850301e+00 2.059834153855538419e-01 3.465014021293714164e-01 -3.214022416663598225e+00 -2.525774610587638858e+00 9.820369654542844273e-01 -6.011599140852612322e-02 -1.709068320026175813e+00 1.308568095124851005e-01 -1.508680653556491391e+00 -1.104889930831912670e+00 -7.587289427608305825e-01 1.081262007018707616e-01 7.473991195791216402e-01 1.078963440794305922e-01 1.111643704610724592e+00 1.363681234006038467e+00 1.270254544286436804e+00
-5.520626423761705315e-01 1.763685235997620726e+00 -1.465216154648764091e+00 7.972857199581130372e-01 2.668054317216198568e-01 -2.903973600905949137e-01 1.376264727088215345e+00 -4.576759027368914601e-01 9.057055406407743536e-01 -1.009708206095782379e-01 -1.352801353877204626e-01 -1.787040108655310044e-01 -8.731929127503409993e-02 -9.062367305534827500e-01 -1.262214190486718124e+00 2.237929327492950704e-01 9.598390892182741274e-02 -2.386960751017795299e-02 -2.718062273664308415e-01 -1.577391328605878051e+00 -7.654153536368695221e-01 4.822237672604891001e-01 5.091344755874702699e-01 6.607580853175072377e-01 -1.303858348357670893e+00 -9.203387171615338147e-01 -3.350126847724185786e-01 2.206582437774937400e-01 1.396197975661526591e+00 -1.991420184110733294e+00 4.240962670353545794e-01 3.852828937427754674e-01 -8.182047294826946260e-01 1.043302239975011370e+00 -1.872049006631409718e+00 -5.559995155336689976e-01 1.253291948303364434e+00 -2.414974462600109728e+00 -1.991234550462632757e+00 -2.983276706750961904e-01 4.968065501593265654e-01 1.087494875297448482e+00 -1.167271578344401428e+00 5.346593593115965826e-01 -1.119010943603342412e+00 1.533100477142756546e+00 6.569384544640721746e-01 -4.807150439266201225e-01 1.850217255485281653e-01 2.474969612160150267e-01 -4.648981315113254187e-01 -5.281914922040970017e-01 1.867525921953593904e-01 9.952843173721888370e-02 -3.426802286140407716e+00 -1.700192357699688905e+00 -1.253911069944120493e+00 -3.779809607704036623e-01 1.073096183384815716e-01 -9.575168688448071341e-01 2.759013776344149349e+00 -1.397612596619765668e+00 -5.446470666441582953e-02 -3.942390744878317976e-01 1.116810593519625749e+00 3.476393723876713415e-01 1.117484736767990317e+00 7.346202226568392391e-01 3.679330896239145221e-01 -1.008747641955473284e+00 -4.228533957681558375e-01 1.217960362909090044e+00 -1.302073488544494839e-01 -1.609921954218426488e-01 -2.494345445568528497e-01 -1.351500375678605648e-01 -3.334782504069567777e-01 3.199244229924654848e-01 2.064605607098541018e+00 -5.048787856382203287e+00 7.597392320362405194e+00 1.612678176805180941e-01 2.234669168686976015e-01 1.652463427091970249e-01 7.812800885709269005e-01 2.608949797790535707e-02 9.601424793910697808e-01 5.566093812030515897e-01 4.047687703663710446e-02 4.233321351764148810e-01 -1.375104131122113715e+00 3.833242273560314994e-01 1.104209102715333790e+00 -1.545173863358130895e+00 4.619396659500615954e+00 -6.885762387935268514e+00 1.712500228523190282e+00 3.648575360247768296e-01 -2.300201446010853856e-01 -1.831437918009858057e-01 -2.516220391247732113e-01 -1.828532571439865084e-01 4.573396024436569007e-01 2.452724427626009063e-01 1.946160540977192321e-01 4.298390830519354666e-01 2.008259367142160023e+00 2.459169669025706551e+00 -1.637661586203961406e+00 1.396686485261791066e+00 1.315962587810956819e-01 -4.863020510917482331e-01 -1.271397656751055205e+00 1.051562680205164968e+00 -8.978549342542109235e-01 -3.012080261223809341e+00 -1.690852568363266917e+00 -8.488301676542121532e-01 1.261984333864277996e+00 3.792891380578482935e-02 -2.604419514023873505e-01 7.675036036228415348e-01 -2.598315715123729053e-01 -9.958473889640724330e-01 1.703458687153245471e-02 5.464180425002743702e-01 -4.261315522962452751e-01 1.291119560644673481e+00 -4.700233685490458335e-02 -1.912191126036708044e-01 3.870487273925729554e-01 -2.760763154933727481e-01 1.033036339280615001e+00 9.885084321062069801e-01 1.336377146895686707e-01 1.251067944070582416e-01 7.193946639681801647e-02 -1.035547792846605170e-01 -9.059055724665667775e-01 -6.860376858002374956e-01 7.666849643769247935e-01 -6.568278970282228624e-01 -3.983502684395298088e-01 -2.021077344832463429e-01 8.400796751618986313e-01 -4.849177691507887689e-01 2.475324424396131429e-01 6.862084070500140687e-01 3.416944676627706179e-02 5.365470632511440963e-01 1.095622132383951008e+00 1.054532818574771769e+00 -5.842040029704028692e-01 -3.325318273340236441e+00 1.662049013890419591e+00 1.825035871143236399e+00 3.595435800151648431e-01 7.635842139668260753e-01 -8.581041367497561634e-01 4.610296496978640024e-02 -1.867253385018709799e-01 -5.266493445291573622e-02 1.732567688681416307e+00 -2.562141322113840936e+00 -3.854597856401343475e-02 1.519074595188220356e-01 -6.773031341475115319e-01 -1.346892444596533789e+00 -1.717588955896048875e+00 1.234465302529809794e+00 3.450096480763538143e-01 1.946253100690926718e-01 -6.359176292543828879e-01 4.252697185172527039e-01 2.009080577491235697e-01 3.026121569797301514e-01 7.538736715548353118e-01 8.541271543829728197e-01 6.985044507989828233e-01 4.791728962516805246e-01 -4.433317182112357369e-01 -4.895982053419528079e-01 1.435683949540575099e+00 -1.174882557916519410e+00 -1.684701461164991976e+00 -1.153953778199932501e+00 2.187714140130202267e+00 2.044521177659463618e+00 1.767774318462149052e+00 -2.314877302844057239e-01 -6.962845603312552978e-01 -2.243472625904370521e-01
1.972560628216739609e-01 2.245601499320259639e-02 -3.605411680409677522e-01 1.058370961370953767e+00 -2.802821260413325133e-01 -5.691226831689800036e+00 7.335460157568894635e-02 1.328139332373334813e-01 -3.668306005892127408e-01 -7.806126301907762022e-02 -8.003638446604101064e-01 2.571529962410289416e-01 -1.525692614720222141e-03 -1.078433793543493169e-01 -2.347098367636227534e-01 3.966800798272577394e-02 -1.257490559762478310e-01 -6.402766775506361918e-02 3.879095327303018759e-01 -1.805410126507775326e+00 -3.177549261466600661e-01 -1.560921870208756834e-01 1.336459422196783738e-03 -8.297937198628595468e-01 7.025374832146384918e-01 -1.881514780022636391e+00 -1.238570325833925567e+00 -1.548092065443920307e+00 -8.849644514548153929e-01 1.881238129322697405e+00 -1.398840555488640724e+00 3.363116060884897562e-01 2.060050126520918401e-01 1.206069010797393037e+00 5.971633913344673861e-01 3.729991912889714101e-01 5.426097245007401870e-01 2.265249869663521765e-01 4.189386340978271672e-01 9.996850175396225779e-01 2.411298813523595208e-01 7.386897647373567022e-01 2.553048872901342303e-01 7.353355035557525288e-02 2.757986363521698903e-01 4.717871453163159923e-01 -2.788253389912812019e-01 -1.300191441031897654e-01 1.356745940344181056e+00 -6.935998144123289855e-01 -2.767838830828082131e-01 3.209168688119498625e-01 -4.340592917775872861e-01 -5.565049944147846400e-02 3.563908933212484725e-02 -5.293829414081100415e-01 -2.266471657884814750e+00 -5.767961405478685410e-01 4.867216551273437219e-01 3.091093346632454719e-01 2.758536579597786059e-02 2.651949441247063888e+00 -6.750621606338780278e-01 -1.355737553685109065e-01 4.158738791319584460e-01 1.147353756390045776e+00 -6.821136681585354342e-03 1.043896679025438257e+00 -1.770204525168306287e-02 -4.358930025507898876e-01 1.095437527177114401e+00 5.185678530788900842e-01 3.071491256146059445e-01 -5.753542658961410261e-01 -2.377576224486401824e-01 1.055090747960336861e+00 7.332673081744228716e-01 -2.639345379339613218e-01 1.352246509815430597e+00 1.437338711533891367e+00 -1.135378586315356264e+00 3.638038979501014847e-01 1.234055468686219292e+00 3.094276372343651160e-01 -4.618409355887449941e+00 -2.886603742182446197e+00 -1.404174566102895039e+00 -1.284219748206413825e-01 1.040376324579744133e-01 5.104513946256565848e-01 -1.026210060392710899e+00 3.708327797669571102e-01 -7.639580523661861911e-01 5.921883067212492247e-01 3.782000187595747631e-01 -1.612832442994738269e-01 5.601173943535812105e-01 1.851693068698712086e-01 2.603725316170866777e-01 -2.347118936461501659e-01 -2.829725283872092101e-01 -7.051821199242799265e-01 3.364740998081566237e-01 -1.044009293343814981e+00 3.353438428593345094e-02 -2.084331624757213841e-01 -2.854238181392724227e-01 -1.849584764108097579e-01 -7.470000843688004988e-01 -8.673446815042296087e-01 -5.973479965413039938e-01 3.636213496257921785e-01 -3.677860225232033875e-02 -4.639658495057683574e-01 -8.101911151558325308e-01 -6.302658302896407827e-01 1.507283516099735578e-02 5.363218346143906468e-01 9.525402415696935243e-01 1.919374788263752685e-01 -3.640908330626778100e-01 5.852057047612607699e-01 1.269214790168821660e-01 5.053672952384846262e+00 1.244776454639809682e+00 7.236799730258251628e+00 -1.117123753884426529e+00 6.630535662181176182e-01 -1.620692819573306798e+00 -8.963708935106712294e-01 -1.356836957396019727e+00 3.271708201365967628e-01 -4.921091446873113000e-03 -3.704414578661138213e-01 -3.666187416888876116e-02 -4.067248656499556914e-01 1.214814361083387917e+00 -8.381739735002360359e-01 9.036090631246926352e-02 -2.392768873054622603e+00 8.854714729978265808e-01 -1.328997052387272504e+00 4.909156386007707540e-01 1.105322390383304709e+00 -3.743320511667452138e-02 -3.166719774959688705e-01 -1.632809914542388885e+00 -3.116696391892623819e-01 6.584985998611267988e-01 1.101578864183384437e-01 -3.197609008315349111e-01 6.028213609467918399e-01 7.923070358004720148e-01 -2.450218630486968863e+00 1.562342147593946295e+00 6.758905700717999787e-01 -5.147657057269381387e-01 -2.326370133966065012e-01 7.962372240897563902e-01 -1.690829428434833304e+00 -2.321474753550784864e-01 9.185610564372036491e-01 1.113643508648017422e+00 -1.951237955496150089e+00 7.852113053014749822e-01 -2.023638163579112026e-01 1.199199023155781418e+00 8.583036543549167341e-01 1.542044830813280143e+00 2.207286920040582023e-01 -5.302874554995468115e-01 4.140530238745522285e-01 -1.796818528190705866e+00 7.293237501487104257e-01 1.800096170498163284e-01 -1.342486088002149691e-01 -4.945918018979176822e-01 -4.165423659533727951e-01 1.213771521641981432e-01 2.786530750796090139e-01 4.398931248460068444e-01 1.102194386279717220e+00 -1.396674658187258278e-01 -9.215389081162883578e-01 2.029761502863267619e+00 1.278390028903049203e+00 1.550359264209778765e+00 -1.593267376393836532e+00 -6.691877041355417388e-01 -4.315946322890958364e-01 3.907727132084825583e-01 5.466885225526312703e-02
-8.998413685550752383e-01 -8.054649133284333407e-02 1.124379406999931191e-01 1.995464015159657822e-01 -4.520194757864626212e-01 2.143461855214469913e-01 -1.540904803672452639e+00 3.604028426909982041e-01 1.367929724866442376e-01 9.063277476053214210e-01 -7.888792410685121492e-01 -3.390565158213433572e-02 -8.825347589692902339e-01 -1.720241820135799848e+00 -4.248336594214378037e-01 9.637471660203886237e-02 1.343055844462247572e+00 -1.174118426057579878e+00 -1.562258843851585643e+00 1.872335427523354134e+00 -1.193425353901288899e+00 9.553304027181503955e-01 1.054416604711972294e+00 3.038169759201714837e-01 1.420853312297182258e-01 -3.392051255839500623e+00 1.144643813660158438e+00 -1.157061727698877496e+00 1.106812601774426641e+00 -9.057163392740434915e-01 2.762372665511440561e-01 -1.516626904980580559e-01 -4.079564240632535532e-01 -5.260991284530702056e-02 3.651861230085334808e-01 -1.534742897840908268e-02 1.250619543679602819e+00 2.950028229136341107e+00 -2.476923650561207169e-01 4.409287651985672324e-02 -4.443061663086050328e-01 -8.937740793197923583e-01 -1.131899369520210641e+00 1.329489161531959729e+00 -9.622579830705304538e-01 9.629691502043887796e-01 -3.542373373150307092e-01 -1.189825295257656901e+00 7.950138932065682340e-01 2.595811460646584856e-01 6.366678771562624961e-01 -1.165006950681702458e+00 -2.275955943218788136e-01 1.133464657123583796e+00 4.552148427928230379e-01 -3.523506618167467352e-01 -7.814250987891105393e-02 2.483053160492944278e-01 8.334246317444032881e-01 -1.140974335231225822e+00 3.448672089613293024e-02 3.257937372844831869e-01 6.820915566713655620e-01 -1.345615120547000609e+00 -5.349874320747213252e-01 -2.388467417469136933e+00 -8.419221276858428471e-01 -2.525507215859072452e-01 2.314548201639669012e-01 1.361918485680032154e+00 -3.599924946267761272e-01 1.499835030247284484e+00 -9.635296506931132487e-01 8.208555368399184093e-02 -6.938708086853178081e-01 -1.808817352414461288e-01 9.375363119733649553e-01 -8.761908190340683689e-02 5.005989273192731903e-02 -1.027882820108142026e+00 -3.808307715121561077e-01 7.567131978839505280e-01 -3.490041139446202756e-01 1.528337765650495284e+00 -4.393897028474186839e-01 -6.137737461847175835e-01 -1.691250060911692721e+00 -8.438669101155266139e-02 1.221085795909518046e+00 1.049484200411198165e+00 -8.137248393379550304e-01 -1.927216652899574612e-01 -1.085668877833723678e-01 -3.422909635957249730e-02 -1.502865332430818768e+00 6.719557537968288141e-01 -1.704065467498837028e-01 -1.393075113764258022e-01 -7.830654626047349465e-02 6.952818300991338019e-01 2.155695164046352030e-01 5.869550833508387910e-01 -6.287612207208266302e-01 -1.584069511951807119e+00 5.133248595164743300e-01 -7.544819945623223445e-01 9.757902132184835542e-02 1.303482453075783254e-01 5.682215115116502346e-01 -4.612157975665962528e-01 -4.444953995011284853e-01 -5.005984130986412817e-01 1.444985686550239290e+00 1.432675244623578814e-01 2.002282580738083961e-01 3.849717902605018227e-01 6.802156798063505594e-01 -3.229737513393785009e-01 -2.885240543287392878e-01 2.623301695625668839e-01 4.149009736964847650e-01 -4.581726398672654743e-01 -4.306957746246095065e-01 -1.488139081975693168e-01 -2.887611100400254149e-01 3.886083585689957265e-01 1.622020023024130175e+00 1.544944520956322620e+00 7.906815843831714874e-01 1.242124104620690117e+00 1.231528588501273225e+00 9.692303006178815128e-01 -8.423345326325923921e-01 -2.733330512665411050e+00 -9.758498628117789897e-01 7.939895657079086844e-01 1.504474328787899884e+00 2.513287276763619182e+00 -1.601530901947781249e+00 -9.436251984751857780e-01 -5.547638433553162551e-01 2.656649417822238401e+00 7.667749529874998138e-02 1.344635530243312900e-02 1.487383177646863230e-01 3.718776760908908408e-01 4.598114610209943498e-01 -1.693822192512242086e-01 3.291680530707299934e-02 6.904095896122871556e-01 -9.105592691848741760e-01 -1.262509867350036119e+00 5.415334607182631377e-01 -8.447513696023209451e-02 -9.943227247906159805e-02 -7.998372827333883883e-01 1.081359708938760322e+00 -1.355077294393804532e+00 1.414570564617151360e+00 -4.977501450187844095e-02 6.173064419255763075e-02 2.842303120527319218e-02 9.733600065123265699e-01 4.132528965713824776e-01 -2.832805465456917360e-01 2.529790673722442929e-01 -2.405045890640212236e-01 4.913943780090297697e-02 -2.956100146357310346e-02 -9.999534407094518712e-03 -5.715582891917714292e-01 -1.728412785976010335e+00 1.665035607320245914e+00 -2.590660512577271923e+00 -2.438223405807636857e-01 2.130035554516679364e-01 1.023093369143024574e-02 2.395321978491793125e-01 -1.526662434831904891e+00 4.208520490689677263e-01 1.482570586753311659e+00 -4.392287517896473759e-01 6.554482430729500209e-01 8.897508170961419827e-02 4.145389623716572852e-02 3.467106899265373077e-01 -5.834434706558860873e-01 -2.429003429878437703e-01 -1.768872693731796120e-01 8.683396984268729746e-01 1.529812036202029990e+00 -2.853050331733133702e-02