1.413323000000000107e+00 1.413294000000000050e+00 1.494069000000000091e+00 4.519650999999999641e+00 4.519629000000000119e+00 1.494065999999999894e+00 1.413296000000000108e+00 4.519632999999999790e+00 4.600399000000000349e+00 4.519642000000000159e+00 1.413294000000000050e+00 4.600389999999999979e+00 7.625981999999999594e+00 1.413297000000000025e+00 1.494070999999999927e+00 1.073230200000000067e+01 4.519625999999999699e+00 1.494083999999999968e+00 7.625973000000000113e+00 4.519632999999999790e+00 4.600399000000000349e+00 1.073229300000000030e+01 1.413311999999999902e+00 4.600387999999999700e+00 1.413318000000000074e+00 7.625943000000000360e+00 1.494069000000000091e+00 4.519636000000000209e+00 1.073227699999999984e+01 1.494056999999999968e+00 1.413308000000000009e+00 1.073229000000000077e+01 4.600391000000000119e+00 4.519626999999999839e+00 7.625943000000000360e+00 4.600394999999999790e+00 7.625975999999999644e+00 7.625945999999999891e+00 1.494072000000000067e+00 1.073228600000000021e+01 1.073227499999999957e+01 1.494075000000000042e+00 7.625985000000000014e+00 1.073229000000000077e+01 4.600391000000000119e+00 1.073227699999999984e+01 7.625961000000000212e+00 4.600393000000000399e+00 1.413305999999999951e+00 1.413300999999999918e+00 7.706717000000000262e+00 4.519632999999999790e+00 4.519635000000000069e+00 7.706713999999999842e+00 1.413296000000000108e+00 4.519630000000000258e+00 1.081306400000000068e+01 4.519642000000000159e+00 1.413291000000000075e+00 1.081305399999999928e+01 7.625963999999999743e+00 1.413303999999999894e+00 7.706719999999999793e+00 1.073228399999999993e+01 4.519632999999999790e+00 7.706731999999999694e+00 7.625973000000000113e+00 4.519630000000000258e+00 1.081306400000000068e+01 1.073229300000000030e+01 1.413310000000000066e+00 1.081305200000000077e+01 1.413300000000000001e+00 7.625949999999999562e+00 7.706717000000000262e+00 4.519618000000000357e+00 1.073228399999999993e+01 7.706705000000000361e+00 1.413307000000000091e+00 1.073228800000000049e+01 1.081305500000000031e+01 4.519625999999999699e+00 7.625941000000000081e+00 1.081306000000000012e+01 7.625957999999999792e+00 7.625951999999999842e+00 7.706719999999999793e+00 1.073226799999999947e+01 1.073228100000000040e+01 7.706723000000000212e+00 7.625983999999999874e+00 1.073228800000000049e+01 1.081305500000000031e+01 1.073227699999999984e+01 7.625958999999999932e+00 1.081305700000000058e+01 4.799330000000000318e+00 1.693006999999999929e+00 1.773771999999999904e+00 1.693019000000000052e+00 4.799347000000000030e+00 1.773770999999999987e+00 4.799326999999999899e+00 4.799342000000000219e+00 4.880109000000000030e+00 1.693013000000000101e+00 1.693006000000000011e+00 4.880111000000000310e+00 1.101198800000000055e+01 1.693006999999999929e+00 1.773771999999999904e+00 7.905673000000000172e+00 4.799345999999999890e+00 1.773776999999999937e+00 1.101197999999999944e+01 4.799351999999999840e+00 4.880118999999999652e+00 7.905667000000000222e+00 1.693011999999999961e+00 4.880110000000000170e+00 4.799326999999999899e+00 7.905661000000000271e+00 1.773768999999999929e+00 1.693008999999999986e+00 1.101199000000000083e+01 1.773768000000000011e+00 4.799332999999999849e+00 1.101198100000000046e+01 4.880103000000000080e+00 1.693003999999999953e+00 7.905663999999999803e+00 4.880112999999999701e+00 1.101198399999999999e+01 7.905661000000000271e+00 1.773768999999999929e+00 7.905662999999999663e+00 1.101198899999999981e+01 1.773773999999999962e+00 1.101198600000000027e+01 1.101199100000000008e+01 4.880112999999999701e+00 7.905657999999999852e+00 7.905669999999999753e+00 4.880111999999999561e+00 4.799318000000000417e+00 1.693009999999999904e+00 7.986432999999999893e+00 1.693006000000000011e+00 4.799349999999999561e+00 7.986431999999999753e+00 4.799324999999999619e+00 4.799343999999999610e+00 1.109275399999999934e+01 1.693011000000000044e+00 1.693008000000000068e+00 1.109275500000000036e+01 1.101197499999999962e+01 1.693009999999999904e+00 7.986432999999999893e+00 7.905660000000000132e+00 4.799349000000000309e+00 7.986437999999999704e+00 1.101197799999999916e+01 4.799354000000000120e+00 1.109276400000000073e+01 7.905664999999999942e+00 1.693014000000000019e+00 1.109275399999999934e+01 4.799314999999999998e+00 7.905662999999999663e+00 7.986430000000000362e+00 1.692997000000000085e+00 1.101199300000000036e+01 7.986429000000000222e+00 4.799330999999999570e+00 1.101198300000000074e+01 1.109274699999999925e+01 1.693001999999999896e+00 7.905666000000000082e+00 1.109275799999999990e+01 1.101197200000000009e+01 7.905663999999999803e+00 7.986430000000000362e+00 7.905650999999999762e+00 1.101199199999999934e+01 7.986436000000000313e+00 1.101198399999999999e+01 1.101199300000000036e+01 1.109275799999999990e+01 7.905655999999999572e+00 7.905672000000000033e+00 1.109275599999999962e+01
1.406463000000000019e+00 1.406433999999999962e+00 1.486815999999999915e+00 4.497710999999999792e+00 4.497689000000000270e+00 1.486812999999999940e+00 1.406436000000000019e+00 4.497692999999999941e+00 4.578066999999999886e+00 4.497702000000000311e+00 1.406433000000000044e+00 4.578058000000000405e+00 7.588962000000000430e+00 1.406436000000000019e+00 1.486818999999999891e+00 1.068020300000000056e+01 4.497685999999999851e+00 1.486831000000000014e+00 7.588954000000000200e+00 4.497692999999999941e+00 4.578066999999999886e+00 1.068019400000000019e+01 1.406450999999999896e+00 4.578056000000000125e+00 1.406457000000000068e+00 7.588923999999999559e+00 1.486815999999999915e+00 4.497696000000000360e+00 1.068017900000000076e+01 1.486804000000000014e+00 1.406447000000000003e+00 1.068019199999999991e+01 4.578058999999999656e+00 4.497686999999999991e+00 7.588923999999999559e+00 4.578063000000000216e+00 7.588956999999999731e+00 7.588926999999999978e+00 1.486818999999999891e+00 1.068018799999999935e+01 1.068017599999999945e+01 1.486822000000000088e+00 7.588964999999999961e+00 1.068019199999999991e+01 4.578058999999999656e+00 1.068017900000000076e+01 7.588942000000000299e+00 4.578060999999999936e+00 1.406444999999999945e+00 1.406439999999999912e+00 7.669305999999999734e+00 4.497692999999999941e+00 4.497695000000000221e+00 7.669303000000000203e+00 1.406436000000000019e+00 4.497690000000000410e+00 1.076057300000000083e+01 4.497702000000000311e+00 1.406430999999999987e+00 1.076056400000000046e+01 7.588943999999999690e+00 1.406443000000000110e+00 7.669309000000000154e+00 1.068018499999999982e+01 4.497692999999999941e+00 7.669321000000000055e+00 7.588954000000000200e+00 4.497690000000000410e+00 1.076057300000000083e+01 1.068019400000000019e+01 1.406449000000000060e+00 1.076056099999999915e+01 1.406438999999999995e+00 7.588930999999999649e+00 7.669305999999999734e+00 4.497677999999999621e+00 1.068018499999999982e+01 7.669293999999999834e+00 1.406447000000000003e+00 1.068018999999999963e+01 1.076056400000000046e+01 4.497686999999999991e+00 7.588921000000000028e+00 1.076056900000000027e+01 7.588938999999999879e+00 7.588932999999999929e+00 7.669309000000000154e+00 1.068017000000000039e+01 1.068018299999999954e+01 7.669311999999999685e+00 7.588964999999999961e+00 1.068018999999999963e+01 1.076056400000000046e+01 1.068017900000000076e+01 7.588938999999999879e+00 1.076056600000000074e+01 4.776032999999999973e+00 1.684787999999999952e+00 1.765160999999999980e+00 1.684800000000000075e+00 4.776049999999999685e+00 1.765160000000000062e+00 4.776029000000000302e+00 4.776043999999999734e+00 4.856418999999999819e+00 1.684793999999999903e+00 1.684787000000000035e+00 4.856421000000000099e+00 1.095853100000000069e+01 1.684789000000000092e+00 1.765161999999999898e+00 7.867295999999999623e+00 4.776049000000000433e+00 1.765166000000000013e+00 1.095852400000000060e+01 4.776054000000000244e+00 4.856429000000000329e+00 7.867289999999999672e+00 1.684792999999999985e+00 4.856419999999999959e+00 4.776029000000000302e+00 7.867283999999999722e+00 1.765158000000000005e+00 1.684790999999999928e+00 1.095853400000000022e+01 1.765158000000000005e+00 4.776035000000000252e+00 1.095852499999999985e+01 4.856412999999999869e+00 1.684785999999999895e+00 7.867287000000000141e+00 4.856423000000000378e+00 1.095852799999999938e+01 7.867283999999999722e+00 1.765158999999999923e+00 7.867286000000000001e+00 1.095853299999999919e+01 1.765163999999999955e+00 1.095852999999999966e+01 1.095853499999999947e+01 4.856423000000000378e+00 7.867281000000000191e+00 7.867293000000000092e+00 4.856422000000000239e+00 4.776019999999999932e+00 1.684790999999999928e+00 7.947663999999999618e+00 1.684787999999999952e+00 4.776053000000000104e+00 7.947663000000000366e+00 4.776027000000000022e+00 4.776046000000000014e+00 1.103890499999999975e+01 1.684792000000000067e+00 1.684789000000000092e+00 1.103890700000000002e+01 1.095851900000000079e+01 1.684792000000000067e+00 7.947663999999999618e+00 7.867282999999999582e+00 4.776050999999999824e+00 7.947669000000000317e+00 1.095852200000000032e+01 4.776055999999999635e+00 1.103891499999999937e+01 7.867288000000000281e+00 1.684795000000000043e+00 1.103890600000000077e+01 4.776017000000000401e+00 7.867286000000000001e+00 7.947661000000000087e+00 1.684779000000000027e+00 1.095853699999999975e+01 7.947659999999999947e+00 4.776032999999999973e+00 1.095852700000000013e+01 1.103889900000000068e+01 1.684784000000000059e+00 7.867289000000000421e+00 1.103890900000000030e+01 1.095851599999999948e+01 7.867287000000000141e+00 7.947661000000000087e+00 7.867274000000000100e+00 1.095853600000000050e+01 7.947667000000000037e+00 1.095852799999999938e+01 1.095853699999999975e+01 1.103890900000000030e+01 7.867278999999999911e+00 7.867295000000000371e+00 1.103890799999999928e+01
1.399602000000000013e+00 1.399572999999999956e+00 1.479562999999999962e+00 4.475770999999999944e+00 4.475749000000000422e+00 1.479559999999999986e+00 1.399575000000000014e+00 4.475753000000000092e+00 4.555735000000000312e+00 4.475761999999999574e+00 1.399572999999999956e+00 4.555725999999999942e+00 7.551942999999999628e+00 1.399575999999999931e+00 1.479565999999999937e+00 1.062810499999999969e+01 4.475746000000000002e+00 1.479578000000000060e+00 7.551935000000000286e+00 4.475753000000000092e+00 4.555735000000000312e+00 1.062809599999999932e+01 1.399591000000000030e+00 4.555723999999999663e+00 1.399596000000000062e+00 7.551904999999999646e+00 1.479562999999999962e+00 4.475755999999999624e+00 1.062808099999999989e+01 1.479551000000000061e+00 1.399585999999999997e+00 1.062809299999999979e+01 4.555727000000000082e+00 4.475747000000000142e+00 7.551904999999999646e+00 4.555730999999999753e+00 7.551936999999999678e+00 7.551908000000000065e+00 1.479565999999999937e+00 1.062808899999999923e+01 1.062807800000000036e+01 1.479568999999999912e+00 7.551946000000000048e+00 1.062809299999999979e+01 4.555727000000000082e+00 1.062808000000000064e+01 7.551923000000000386e+00 4.555729000000000362e+00 1.399583999999999939e+00 1.399578999999999906e+00 7.631895000000000095e+00 4.475753000000000092e+00 4.475755000000000372e+00 7.631891999999999676e+00 1.399575000000000014e+00 4.475749999999999673e+00 1.070808199999999921e+01 4.475761999999999574e+00 1.399569999999999981e+00 1.070807300000000062e+01 7.551924999999999777e+00 1.399582000000000104e+00 7.631897000000000375e+00 1.062808700000000073e+01 4.475753000000000092e+00 7.631910000000000416e+00 7.551935000000000286e+00 4.475749999999999673e+00 1.070808199999999921e+01 1.062809599999999932e+01 1.399588000000000054e+00 1.070807100000000034e+01 1.399578999999999906e+00 7.551910999999999596e+00 7.631895000000000095e+00 4.475737999999999772e+00 1.062808700000000073e+01 7.631883000000000195e+00 1.399585999999999997e+00 1.062809099999999951e+01 1.070807399999999987e+01 4.475747000000000142e+00 7.551902000000000115e+00 1.070807800000000043e+01 7.551919999999999966e+00 7.551914000000000016e+00 7.631897000000000375e+00 1.062807199999999952e+01 1.062808399999999942e+01 7.631901000000000046e+00 7.551946000000000048e+00 1.062809099999999951e+01 1.070807399999999987e+01 1.062808000000000064e+01 7.551919999999999966e+00 1.070807600000000015e+01 4.752735000000000376e+00 1.676569999999999894e+00 1.756550000000000056e+00 1.676582000000000017e+00 4.752752000000000088e+00 1.756550000000000056e+00 4.752731999999999957e+00 4.752746000000000137e+00 4.832728999999999608e+00 1.676576000000000066e+00 1.676568999999999976e+00 4.832730999999999888e+00 1.090507500000000007e+01 1.676571000000000033e+00 1.756550999999999974e+00 7.828917999999999822e+00 4.752750999999999948e+00 1.756556000000000006e+00 1.090506799999999998e+01 4.752755999999999759e+00 4.832739000000000118e+00 7.828913000000000011e+00 1.676574999999999926e+00 4.832729999999999748e+00 4.752730999999999817e+00 7.828907000000000060e+00 1.756547999999999998e+00 1.676571999999999951e+00 1.090507799999999961e+01 1.756547000000000081e+00 4.752737999999999907e+00 1.090506899999999924e+01 4.832722999999999658e+00 1.676566999999999918e+00 7.828909999999999592e+00 4.832733000000000168e+00 1.090507200000000054e+01 7.828907000000000060e+00 1.756547999999999998e+00 7.828909000000000340e+00 1.090507599999999933e+01 1.756553000000000031e+00 1.090507400000000082e+01 1.090507900000000063e+01 4.832733000000000168e+00 7.828903999999999641e+00 7.828916000000000430e+00 4.832732000000000028e+00 4.752722999999999587e+00 1.676573000000000091e+00 7.908895000000000231e+00 1.676568999999999976e+00 4.752754999999999619e+00 7.908894000000000091e+00 4.752729999999999677e+00 4.752748000000000417e+00 1.098505699999999941e+01 1.676574000000000009e+00 1.676571000000000033e+00 1.098505899999999968e+01 1.090506300000000017e+01 1.676573000000000091e+00 7.908895000000000231e+00 7.828905999999999921e+00 4.752754000000000367e+00 7.908900000000000041e+00 1.090506599999999970e+01 4.752758000000000038e+00 1.098506700000000080e+01 7.828910999999999731e+00 1.676576999999999984e+00 1.098505800000000043e+01 4.752718999999999916e+00 7.828909000000000340e+00 7.908891999999999811e+00 1.676560000000000050e+00 1.090507999999999988e+01 7.908890999999999671e+00 4.752735999999999628e+00 1.090507099999999951e+01 1.098505100000000034e+01 1.676565000000000083e+00 7.828911999999999871e+00 1.098506099999999996e+01 1.090505899999999961e+01 7.828909999999999592e+00 7.908891999999999811e+00 7.828897000000000439e+00 1.090507900000000063e+01 7.908896999999999622e+00 1.090507200000000054e+01 1.090508099999999914e+01 1.098506099999999996e+01 7.828902000000000250e+00 7.828917999999999822e+00 1.098506000000000071e+01
1.392741000000000007e+00 1.392711999999999950e+00 1.472310000000000008e+00 4.453831000000000095e+00 4.453808999999999685e+00 1.472307999999999950e+00 1.392714000000000008e+00 4.453813000000000244e+00 4.533402999999999849e+00 4.453821999999999726e+00 1.392711999999999950e+00 4.533394000000000368e+00 7.514923999999999715e+00 1.392714999999999925e+00 1.472312999999999983e+00 1.057600599999999957e+01 4.453806000000000154e+00 1.472325000000000106e+00 7.514916000000000373e+00 4.453813000000000244e+00 4.533402999999999849e+00 1.057599699999999920e+01 1.392730000000000024e+00 4.533392000000000088e+00 1.392735999999999974e+00 7.514885999999999733e+00 1.472310999999999925e+00 4.453815999999999775e+00 1.057598199999999977e+01 1.472299000000000024e+00 1.392724999999999991e+00 1.057599500000000070e+01 4.533394999999999619e+00 4.453807000000000293e+00 7.514885999999999733e+00 4.533399000000000179e+00 7.514917999999999765e+00 7.514888000000000012e+00 1.472312999999999983e+00 1.057599100000000014e+01 1.057597900000000024e+01 1.472317000000000098e+00 7.514927000000000135e+00 1.057599500000000070e+01 4.533394999999999619e+00 1.057598199999999977e+01 7.514903000000000333e+00 4.533396999999999899e+00 1.392722999999999933e+00 1.392719000000000040e+00 7.594483000000000317e+00 4.453813000000000244e+00 4.453814999999999635e+00 7.594481000000000037e+00 1.392714000000000008e+00 4.453809999999999825e+00 1.065559200000000040e+01 4.453821999999999726e+00 1.392709999999999892e+00 1.065558300000000003e+01 7.514905999999999864e+00 1.392721000000000098e+00 7.594485999999999848e+00 1.057598899999999986e+01 4.453813000000000244e+00 7.594497999999999749e+00 7.514915000000000234e+00 4.453809999999999825e+00 1.065559200000000040e+01 1.057599699999999920e+01 1.392727000000000048e+00 1.065558000000000050e+01 1.392717999999999900e+00 7.514891999999999683e+00 7.594483999999999568e+00 4.453797999999999924e+00 1.057598899999999986e+01 7.594471999999999667e+00 1.392724999999999991e+00 1.057599300000000042e+01 1.065558300000000003e+01 4.453807000000000293e+00 7.514883000000000202e+00 1.065558799999999984e+01 7.514901000000000053e+00 7.514895000000000103e+00 7.594485999999999848e+00 1.057597299999999940e+01 1.057598600000000033e+01 7.594489000000000267e+00 7.514925999999999995e+00 1.057599300000000042e+01 1.065558300000000003e+01 1.057598199999999977e+01 7.514901000000000053e+00 1.065558500000000031e+01 4.729436999999999891e+00 1.668350999999999917e+00 1.747940000000000049e+00 1.668363000000000040e+00 4.729453999999999603e+00 1.747938999999999909e+00 4.729434000000000360e+00 4.729447999999999652e+00 4.809039000000000286e+00 1.668357000000000090e+00 1.668350000000000000e+00 4.809040999999999677e+00 1.085161899999999946e+01 1.668352000000000057e+00 1.747940999999999967e+00 7.790541000000000160e+00 4.729453000000000351e+00 1.747945000000000082e+00 1.085161199999999937e+01 4.729458000000000162e+00 4.809048999999999907e+00 7.790536000000000350e+00 1.668355999999999950e+00 4.809040000000000425e+00 4.729434000000000360e+00 7.790530000000000399e+00 1.747937000000000074e+00 1.668353999999999893e+00 1.085162099999999974e+01 1.747937000000000074e+00 4.729440000000000310e+00 1.085161300000000040e+01 4.809033000000000335e+00 1.668349000000000082e+00 7.790532999999999930e+00 4.809042999999999957e+00 1.085161500000000068e+01 7.790530000000000399e+00 1.747937999999999992e+00 7.790531999999999790e+00 1.085162000000000049e+01 1.747943000000000024e+00 1.085161800000000021e+01 1.085162200000000077e+01 4.809042999999999957e+00 7.790526999999999980e+00 7.790538999999999881e+00 4.809041999999999817e+00 4.729424999999999990e+00 1.668353999999999893e+00 7.870125999999999955e+00 1.668350999999999917e+00 4.729457000000000022e+00 7.870124999999999815e+00 4.729432000000000080e+00 4.729449999999999932e+00 1.093120900000000084e+01 1.668355000000000032e+00 1.668352000000000057e+00 1.093121099999999934e+01 1.085160699999999956e+01 1.668355000000000032e+00 7.870125999999999955e+00 7.790529000000000259e+00 4.729455999999999882e+00 7.870130999999999766e+00 1.085161000000000087e+01 4.729460000000000441e+00 1.093121900000000046e+01 7.790534000000000070e+00 1.668358000000000008e+00 1.093120900000000084e+01 4.729421999999999571e+00 7.790531999999999790e+00 7.870123000000000424e+00 1.668341999999999992e+00 1.085162399999999927e+01 7.870122000000000284e+00 4.729438000000000031e+00 1.085161399999999965e+01 1.093120300000000000e+01 1.668347000000000024e+00 7.790535000000000210e+00 1.093121299999999962e+01 1.085160300000000078e+01 7.790532999999999930e+00 7.870123000000000424e+00 7.790519999999999889e+00 1.085162300000000002e+01 7.870128000000000235e+00 1.085161599999999993e+01 1.085162399999999927e+01 1.093121299999999962e+01 7.790524999999999700e+00 7.790541000000000160e+00 1.093121099999999934e+01
1.385880000000000001e+00 1.385852000000000084e+00 1.465057999999999971e+00 4.431891000000000247e+00 4.431868999999999836e+00 1.465054999999999996e+00 1.385853999999999919e+00 4.431873000000000395e+00 4.511071000000000275e+00 4.431881999999999877e+00 1.385850999999999944e+00 4.511061999999999905e+00 7.477903999999999662e+00 1.385853999999999919e+00 1.465060000000000029e+00 1.052390800000000048e+01 4.431866000000000305e+00 1.465073000000000070e+00 7.477896000000000321e+00 4.431873000000000395e+00 4.511071000000000275e+00 1.052389900000000011e+01 1.385869000000000018e+00 4.511059999999999626e+00 1.385874999999999968e+00 7.477866999999999820e+00 1.465057999999999971e+00 4.431875999999999927e+00 1.052388400000000068e+01 1.465046000000000070e+00 1.385864999999999903e+00 1.052389600000000058e+01 4.511063000000000045e+00 4.431866999999999557e+00 7.477865999999999680e+00 4.511066999999999716e+00 7.477898999999999852e+00 7.477869000000000099e+00 1.465060000000000029e+00 1.052389200000000002e+01 1.052388099999999937e+01 1.465063999999999922e+00 7.477907000000000082e+00 1.052389600000000058e+01 4.511063000000000045e+00 1.052388400000000068e+01 7.477884000000000420e+00 4.511065000000000325e+00 1.385863000000000067e+00 1.385858000000000034e+00 7.557071999999999790e+00 4.431873000000000395e+00 4.431874999999999787e+00 7.557069000000000258e+00 1.385853999999999919e+00 4.431869999999999976e+00 1.060310100000000055e+01 4.431881999999999877e+00 1.385849000000000109e+00 1.060309200000000018e+01 7.477886999999999951e+00 1.385861000000000010e+00 7.557075000000000209e+00 1.052388999999999974e+01 4.431873000000000395e+00 7.557087000000000110e+00 7.477896000000000321e+00 4.431869999999999976e+00 1.060310100000000055e+01 1.052389900000000011e+01 1.385866999999999960e+00 1.060308999999999990e+01 1.385856999999999895e+00 7.477872999999999770e+00 7.557071999999999790e+00 4.431858000000000075e+00 1.052388999999999974e+01 7.557059999999999889e+00 1.385864999999999903e+00 1.052389400000000030e+01 1.060309299999999944e+01 4.431866999999999557e+00 7.477864000000000289e+00 1.060309699999999999e+01 7.477881000000000000e+00 7.477876000000000190e+00 7.557075000000000209e+00 1.052387500000000031e+01 1.052388700000000021e+01 7.557077999999999740e+00 7.477907000000000082e+00 1.052389400000000030e+01 1.060309299999999944e+01 1.052388400000000068e+01 7.477882000000000140e+00 1.060309499999999971e+01 4.706140000000000434e+00 1.660133000000000081e+00 1.739328999999999903e+00 1.660144999999999982e+00 4.706156000000000006e+00 1.739328999999999903e+00 4.706135999999999875e+00 4.706151000000000195e+00 4.785350000000000215e+00 1.660139000000000031e+00 1.660131999999999941e+00 4.785351000000000354e+00 1.079816300000000062e+01 1.660133999999999999e+00 1.739330000000000043e+00 7.752163999999999611e+00 4.706154999999999866e+00 1.739335000000000075e+00 1.079815600000000053e+01 4.706159999999999677e+00 4.785358999999999696e+00 7.752158999999999800e+00 1.660137999999999892e+00 4.785350000000000215e+00 4.706135999999999875e+00 7.752152999999999849e+00 1.739327000000000067e+00 1.660134999999999916e+00 1.079816499999999913e+01 1.739325999999999928e+00 4.706141999999999825e+00 1.079815600000000053e+01 4.785344000000000264e+00 1.660131000000000023e+00 7.752156000000000269e+00 4.785353999999999886e+00 1.079815900000000006e+01 7.752152999999999849e+00 1.739327000000000067e+00 7.752155000000000129e+00 1.079816399999999987e+01 1.739332000000000100e+00 1.079816100000000034e+01 1.079816600000000015e+01 4.785352999999999746e+00 7.752150000000000318e+00 7.752162000000000219e+00 4.785351999999999606e+00 4.706127000000000393e+00 1.660136000000000056e+00 7.831356000000000428e+00 1.660131999999999941e+00 4.706159000000000425e+00 7.831356000000000428e+00 4.706133999999999595e+00 4.706152000000000335e+00 1.087735999999999947e+01 1.660136999999999974e+00 1.660133999999999999e+00 1.087736199999999975e+01 1.079814999999999969e+01 1.660136000000000056e+00 7.831356999999999680e+00 7.752151999999999710e+00 4.706158000000000285e+00 7.831362000000000378e+00 1.079815400000000025e+01 4.706161999999999956e+00 1.087737000000000087e+01 7.752157000000000409e+00 1.660139999999999949e+00 1.087736100000000050e+01 4.706123999999999974e+00 7.752155000000000129e+00 7.831354000000000148e+00 1.660123000000000015e+00 1.079816800000000043e+01 7.831353000000000009e+00 4.706140000000000434e+00 1.079815800000000081e+01 1.087735400000000041e+01 1.660128999999999966e+00 7.752157999999999660e+00 1.087736400000000003e+01 1.079814700000000016e+01 7.752156000000000269e+00 7.831354000000000148e+00 7.752143000000000228e+00 1.079816699999999940e+01 7.831358999999999959e+00 1.079815900000000006e+01 1.079816800000000043e+01 1.087736400000000003e+01 7.752148000000000039e+00 7.752163999999999611e+00 1.087736300000000078e+01
1.379018999999999995e+00 1.378991000000000078e+00 1.457805000000000017e+00 4.409951000000000398e+00 4.409928999999999988e+00 1.457802000000000042e+00 1.378992999999999913e+00 4.409932999999999659e+00 4.488738999999999812e+00 4.409942000000000029e+00 1.378991000000000078e+00 4.488730000000000331e+00 7.440884999999999749e+00 1.378994000000000053e+00 1.457807999999999993e+00 1.047180900000000037e+01 4.409925999999999569e+00 1.457819999999999894e+00 7.440877000000000407e+00 4.409932999999999659e+00 4.488738999999999812e+00 1.047180000000000000e+01 1.379008000000000012e+00 4.488728000000000051e+00 1.379013999999999962e+00 7.440846999999999767e+00 1.457805000000000017e+00 4.409936000000000078e+00 1.047178500000000057e+01 1.457792999999999894e+00 1.379003999999999897e+00 1.047179799999999972e+01 4.488730999999999582e+00 4.409926999999999708e+00 7.440846999999999767e+00 4.488735000000000142e+00 7.440879999999999939e+00 7.440850000000000186e+00 1.457807999999999993e+00 1.047179399999999916e+01 1.047178300000000029e+01 1.457810999999999968e+00 7.440888000000000169e+00 1.047179799999999972e+01 4.488730999999999582e+00 1.047178500000000057e+01 7.440864999999999618e+00 4.488732999999999862e+00 1.379002000000000061e+00 1.378997000000000028e+00 7.519661000000000151e+00 4.409932999999999659e+00 4.409934999999999938e+00 7.519657999999999731e+00 1.378992999999999913e+00 4.409930000000000128e+00 1.055061099999999996e+01 4.409942000000000029e+00 1.378988000000000103e+00 1.055060199999999959e+01 7.440866999999999898e+00 1.379000000000000004e+00 7.519663999999999682e+00 1.047179200000000066e+01 4.409932999999999659e+00 7.519675999999999583e+00 7.440877000000000407e+00 4.409930000000000128e+00 1.055061099999999996e+01 1.047180000000000000e+01 1.379005999999999954e+00 1.055059900000000006e+01 1.378997000000000028e+00 7.440853999999999857e+00 7.519661000000000151e+00 4.409918000000000227e+00 1.047179200000000066e+01 7.519649000000000250e+00 1.379003999999999897e+00 1.047179599999999944e+01 1.055060199999999959e+01 4.409926999999999708e+00 7.440845000000000375e+00 1.055060699999999940e+01 7.440862000000000087e+00 7.440856000000000137e+00 7.519663999999999682e+00 1.047177699999999945e+01 1.047178899999999935e+01 7.519667000000000101e+00 7.440888000000000169e+00 1.047179599999999944e+01 1.055060199999999959e+01 1.047178500000000057e+01 7.440863000000000227e+00 1.055060399999999987e+01 4.682841999999999949e+00 1.651915000000000022e+00 1.730718999999999896e+00 1.651926000000000005e+00 4.682858000000000409e+00 1.730717999999999979e+00 4.682839000000000418e+00 4.682852999999999710e+00 4.761660000000000004e+00 1.651920000000000055e+00 1.651912999999999965e+00 4.761662000000000283e+00 1.074470600000000076e+01 1.651915000000000022e+00 1.730718999999999896e+00 7.713786999999999949e+00 4.682857000000000269e+00 1.730723999999999929e+00 1.074469900000000067e+01 4.682863000000000220e+00 4.761669000000000374e+00 7.713782000000000139e+00 1.651918999999999915e+00 4.761660000000000004e+00 4.682838000000000278e+00 7.713776000000000188e+00 1.730715999999999921e+00 1.651917000000000080e+00 1.074470900000000029e+01 1.730715999999999921e+00 4.682845000000000368e+00 1.074469999999999992e+01 4.761654000000000053e+00 1.651912000000000047e+00 7.713778999999999719e+00 4.761663999999999675e+00 1.074470299999999945e+01 7.713776000000000188e+00 1.730717000000000061e+00 7.713777999999999579e+00 1.074470799999999926e+01 1.730722000000000094e+00 1.074470499999999973e+01 1.074470999999999954e+01 4.761663999999999675e+00 7.713772999999999769e+00 7.713784999999999670e+00 4.761663000000000423e+00 4.682830000000000048e+00 1.651917000000000080e+00 7.792587000000000153e+00 1.651914000000000105e+00 4.682860999999999940e+00 7.792587000000000153e+00 4.682837000000000138e+00 4.682854999999999990e+00 1.082351199999999913e+01 1.651917999999999997e+00 1.651915000000000022e+00 1.082351399999999941e+01 1.074469400000000086e+01 1.651917999999999997e+00 7.792588000000000292e+00 7.713775000000000048e+00 4.682859999999999800e+00 7.792593000000000103e+00 1.074469700000000039e+01 4.682864999999999611e+00 1.082352200000000053e+01 7.713779999999999859e+00 1.651920999999999973e+00 1.082351300000000016e+01 4.682826000000000377e+00 7.713777999999999579e+00 7.792583999999999733e+00 1.651904999999999957e+00 1.074471199999999982e+01 7.792583999999999733e+00 4.682843000000000089e+00 1.074470200000000020e+01 1.082350600000000007e+01 1.651909999999999989e+00 7.713780999999999999e+00 1.082351599999999969e+01 1.074469099999999955e+01 7.713778999999999719e+00 7.792584999999999873e+00 7.713765999999999678e+00 1.074470999999999954e+01 7.792589999999999684e+00 1.074470299999999945e+01 1.074471199999999982e+01 1.082351599999999969e+01 7.713771000000000377e+00 7.713786999999999949e+00 1.082351500000000044e+01