-1.053285883916367311e+04
-1.053294696192385345e+04
-1.053292175977483384e+04
-1.053279225602784027e+04
-1.053255505515771256e+04
-1.053218702917031987e+04
-1.053169632207719405e+04
-1.053107062428433346e+04
-1.053030442961760127e+04
-1.052927141898297305e+04
-1.052818868504150487e+04
-1.052694841822320268e+04
-1.052553969818458609e+04
-1.052775248982380981e+04
-1.052025500403057413e+04
-1.051642435776750062e+04
-1.051650993136911165e+04
-1.051213692900161368e+04
-1.052225949325021429e+04
-1.052477973463998569e+04
-1.052451313164873318e+04
-1.052168728148406444e+04
-1.051957608887956485e+04
-1.052319909061588623e+04
-1.051999430270307130e+04
-1.052443062300794736e+04
-1.051113093962966013e+04
-1.052625749853621164e+04
-1.052651396512184147e+04
-1.052504705071942590e+04
-1.052289691607596615e+04
-1.052045621218805172e+04
-1.051965481725839527e+04
-1.051761889854519904e+04
-1.052441583413351145e+04
-1.051666014242299934e+04
-1.051934163163230733e+04
-1.052287845716144511e+04
-1.052384192999279367e+04
-1.052837758358990504e+04
-1.052383167448749191e+04
-1.052245111437908781e+04
-1.052264299950066197e+04
-1.052770653250545001e+04
-1.052700303744970734e+04
-1.052191493747495588e+04
-1.052508096667916470e+04
-1.051200073382744449e+04
-1.052445477933346774e+04
-1.052588691610807837e+04
-1.052192131388409143e+04
-1.052312746806052382e+04
-1.052045048133901764e+04
-1.052002132766186332e+04
-1.051809838007806502e+04
-1.052612528523369110e+04
-1.052565288405892352e+04
-1.052220342179783074e+04
-1.052427738411639984e+04
-1.051227102134005690e+04
-1.052328279252066750e+04
-1.052195692487258384e+04
-1.052357726511840156e+04
-1.052064753463687703e+04
-1.051997614246182638e+04
-1.052677534171693333e+04
-1.051778793766737363e+04
-1.052679828419905607e+04
-1.052648476073637175e+04
-1.052368745079846667e+04
-1.052825120216651339e+04
-1.052395191190922378e+04
-1.052405822881445602e+04
-1.052449294441388338e+04
-1.052667726416980986e+04
-1.052495959591282553e+04
-1.052527276297676690e+04
-1.052365381577210428e+04
-1.052599452689287136e+04
-1.051332323111635560e+04
-1.052307849290919512e+04
-1.052672799041296821e+04
-1.052397385172763279e+04
-1.052358853524105325e+04
-1.052342516304089804e+04
-1.052099898011873665e+04
-1.052316758701649997e+04
-1.052577341446220271e+04
-1.052209578213184250e+04
-1.051181563346005169e+04
-1.052047431384567608e+04
-1.052297375585147165e+04
-1.051620132398068199e+04
-1.052230901240164349e+04
-1.052204573167905437e+04
-1.051580817524476697e+04
-1.052508811162075654e+04
-1.051787169042432834e+04
-1.051374831207281750e+04
-1.052518184245475277e+04
