2.437112689242825203e-01 2.437380083971391054e-01 2.437215533369196385e-01 2.437122973655462266e-01 2.437436648240895176e-01 2.437225817781833725e-01 2.437482928097762791e-01 2.437338946320842248e-01 2.437452074859850770e-01 2.437338946320842248e-01 2.437128115861780797e-01 2.437673189731549284e-01 2.436855578926896415e-01 2.437323519701886654e-01 2.437272097638701063e-01 2.437102404830188418e-01 2.437611483255726352e-01 2.437215533369196385e-01 2.436876147752171373e-01 2.437374941765072245e-01 2.437560061192541316e-01 2.437302950876612528e-01 2.437102404830188418e-01 2.437868593571655140e-01 2.437200106750240791e-01 2.438120561681265397e-01 2.437436648240895176e-01 2.437549776779903699e-01 2.437338946320842248e-01 2.437570345605178102e-01 2.437446932653532239e-01 2.437133258068099606e-01 2.437668047525231030e-01 2.437498354716718385e-01 2.437992006523300725e-01 2.437560061192541316e-01 2.436953280846949899e-01 2.438089708443353931e-01 2.437416079415621051e-01 2.437596056636770758e-01 2.437575487811496910e-01 2.437400652796665457e-01 2.436670459499427899e-01 2.437230959988151979e-01 2.437776033857921021e-01 2.437508639129355170e-01 2.437796602683195146e-01 2.437765749445283403e-01 2.437354372939797842e-01 2.437390368384027839e-01 2.437837740333743397e-01 2.437333804114523716e-01 2.437421221621939582e-01 2.437786318270558361e-01 2.437632052081001033e-01 2.437477785891443982e-01 2.436835010101622012e-01 2.437349230733479311e-01 2.437405795002983988e-01 2.437050982767002272e-01 2.437061267179639057e-01 2.437302950876612528e-01 2.437734896207372215e-01 2.437282382051338125e-01 2.437596056636770758e-01 2.437626909874682501e-01 2.436865863339533200e-01 2.437647478699956627e-01 2.436912143196400538e-01 2.437369799558753714e-01 2.437251528813426937e-01 2.437308093082930505e-01 2.437400652796665457e-01 2.438099992855990994e-01 2.437894304603248075e-01 2.437765749445283403e-01 2.437287524257656657e-01 2.437976579904344854e-01 2.437462359272487833e-01 2.437333804114523716e-01 2.437107547036506672e-01 2.437637194287319287e-01 2.438115419474946588e-01 2.436907000990082561e-01 2.437133258068099606e-01 2.438043428586486594e-01 2.437873735777973949e-01 2.437770891651602767e-01 2.437524065748310764e-01 2.437945726666433666e-01 2.436886432164808158e-01 2.437477785891443982e-01 2.437179537924966943e-01 2.437632052081001033e-01 2.438151414919177140e-01 2.437164111306010794e-01 -2.436937854227993749e-01 -2.436433918008774069e-01 -2.437184680131285197e-01 -2.436377353739269669e-01 -2.438403383028786564e-01 -2.437050982767002272e-01 -2.435929981789553556e-01 -2.437179537924966943e-01 -2.438449662885653901e-01 -2.435225499523909487e-01 -2.435153508635449493e-01 -2.439210709420802647e-01 -2.436521335516189379e-01 -2.438516511567795086e-01 -2.436367069326632329e-01 -2.438758195264768558e-01 -2.436942996434312558e-01 -2.438665635551033606e-01 -2.437282382051338125e-01 -2.438819901740590934e-01 -2.440126022145508444e-01 -2.438624497900485077e-01 -2.437405795002983988e-01 -2.437976579904344854e-01 -2.435698582505217979e-01 -2.438958741311192391e-01 -2.438547364805706830e-01 -2.438475373917246558e-01 -2.436824725688985227e-01 -2.435981403852739702e-01 -2.437801744889513955e-01 -2.437241244400789320e-01 -2.440177444208694035e-01 -2.437400652796665457e-01 -2.438660493344715074e-01 -2.438074281824398337e-01 -2.437909731222203669e-01 -2.438742768645812409e-01 -2.437138400274417860e-01 -2.438567933630980678e-01 -2.437976579904344854e-01 -2.437009845116453743e-01 -2.439940902718039373e-01 -2.439632370338924994e-01 -2.435821995456863842e-01 -2.439560379450465277e-01 -2.439560379450465277e-01 -2.436279651819216741e-01 -2.435369481300829753e-01 -2.435559742934616245e-01 -2.439431824292500883e-01 -2.435672871473625323e-01 -2.436624179642560561e-01 -2.439334122372447955e-01 -2.436953280846949899e-01 -2.438028001967531000e-01 -2.434155920609646362e-01 -2.437086978211232269e-01 -2.436804156863710824e-01 -2.434006796626407843e-01 -2.435143224222812430e-01 -2.436963565259586684e-01 -2.437791460476876615e-01 -2.437853166952699546e-01 -2.438861039391139462e-01 -2.439858627416942038e-01 -2.435107228778582156e-01 -2.438557649218343892e-01 -2.437647478699956627e-01 -2.437981722110663663e-01 -2.435683155886262385e-01 -2.436480197865640851e-01 -2.437776033857921021e-01 -2.437899446809566328e-01 -2.439678650195792331e-01 -2.437066409385957866e-01 -2.435220357317591233e-01 -2.437410937209302242e-01 -2.437858309159018355e-01 -2.434911824938476299e-01 -2.437914873428521922e-01 -2.435878559726367687e-01 -2.437817171508469549e-01 -2.436572757579375526e-01 -2.438033144173849254e-01 -2.438861039391139462e-01 -2.437961153285389260e-01 -2.438866181597458271e-01 -2.437920015634841286e-01 -2.437837740333743397e-01 -2.436922427609038155e-01 -2.436423633596136451e-01 -2.440671096015276931e-01 -2.437822313714787803e-01 -2.437688616350504878e-01 -2.439508957387279686e-01
2.773973482966138326e-01 2.774580263311729467e-01 2.774410570503216822e-01 2.773860354427129526e-01 2.774477419185358285e-01 2.774292299757889491e-01 2.774271730932615365e-01 2.774420854915854440e-01 2.774523699042225622e-01 2.774148317980970058e-01 2.774220308869429497e-01 2.774755098326561753e-01 2.773695803824934858e-01 2.774497988010632965e-01 2.774405428296898846e-01 2.773973482966138326e-01 2.774811662596065598e-01 2.774302584170527108e-01 2.773608386317519825e-01 2.774523699042225622e-01 2.774713960676012392e-01 2.774189455631518308e-01 2.774189455631518308e-01 2.775048204086719705e-01 2.774045473854598320e-01 2.775325883227922619e-01 2.774611116549641210e-01 2.774451708153765628e-01 2.774508272423270028e-01 2.774672823025464141e-01 2.774235735488385646e-01 2.774307726376845640e-01 2.774821947008702661e-01 2.774354006233712422e-01 2.775084199530949980e-01 2.774693391850738822e-01 2.773850070014493019e-01 2.775336167640559681e-01 2.774441423741128010e-01 2.774441423741128010e-01 2.774713960676012392e-01 2.774575121105410935e-01 2.773500399984829556e-01 2.774461992566402690e-01 2.774945359960348523e-01 2.774446565947446541e-01 2.774981355404578798e-01 2.774914506722437335e-01 2.774184313425199777e-01 2.774569978899092959e-01 2.774981355404578798e-01 2.774086611505147126e-01 2.774487703597995347e-01 2.774996782023534392e-01 2.774436281534810034e-01 2.774667680819145055e-01 2.773963198553501264e-01 2.774276873138933897e-01 2.774508272423270028e-01 2.774189455631518308e-01 2.773906634283996309e-01 2.774554552280137365e-01 2.774914506722437335e-01 2.774153460187288589e-01 2.774791093770790917e-01 2.774847658040295317e-01 2.773726657062846601e-01 2.774821947008702661e-01 2.774086611505147126e-01 2.774168886806244183e-01 2.774616258755960296e-01 2.774497988010632965e-01 2.774318010789482702e-01 2.775325883227922619e-01 2.775120194975179699e-01 2.774652254200189461e-01 2.774467134772721777e-01 2.775217896895232905e-01 2.774533983454862685e-01 2.774410570503216822e-01 2.774271730932615365e-01 2.774528841248544153e-01 2.775325883227922619e-01 2.774066042679872446e-01 2.774024905029324195e-01 2.775295029990011431e-01 2.775115052768861168e-01 2.774693391850738822e-01 2.774744813913923580e-01 2.775181901451002631e-01 2.773639239555431568e-01 2.774662538612827078e-01 2.774379717265305634e-01 2.774523699042225622e-01 2.775243607926825562e-01 2.774348864027393891e-01 -2.773742083681802195e-01 -2.774009478410368601e-01 -2.774590547724366529e-01 -2.773639239555431568e-01 -2.775588135750170493e-01 -2.774436281534810034e-01 -2.773109592304618398e-01 -2.774760240532879729e-01 -2.772826770957096953e-01 -2.772533665196938446e-01 -2.772770206687592554e-01 -2.776601150394928386e-01 -2.771644063503825306e-01 -2.775259034545781156e-01 -2.773844927808173932e-01 -2.776632003632840129e-01 -2.772327976944194972e-01 -2.772399967832655521e-01 -2.774467134772721777e-01 -2.775418442941656738e-01 -2.776416030967460147e-01 -2.775331025434241150e-01 -2.773510684397467174e-01 -2.775495576036435263e-01 -2.770718466366482446e-01 -2.777135939852060087e-01 -2.772307408118921401e-01 -2.774914506722437335e-01 -2.772281697087328189e-01 -2.773382129239502225e-01 -2.774066042679872446e-01 -2.774744813913923580e-01 -2.776503448474875735e-01 -2.773207294224671604e-01 -2.775665268844949019e-01 -2.775603562369126087e-01 -2.775511002655391413e-01 -2.776133209619938702e-01 -2.777691298134465914e-01 -2.775665268844949019e-01 -2.775917236954558720e-01 -2.777547316357545926e-01 -2.774096895917784189e-01 -2.774076327092510064e-01 -2.776344040079000153e-01 -2.776405746554823084e-01 -2.776822265266626899e-01 -2.774338579614756828e-01 -2.774096895917784189e-01 -2.773562106460652488e-01 -2.774523699042225622e-01 -2.773340991588954529e-01 -2.775670411051266995e-01 -2.774461992566402690e-01 -2.774035189441961258e-01 -2.775449296179568481e-01 -2.772261128262054064e-01 -2.774076327092510064e-01 -2.774081469298828595e-01 -2.772333119150514058e-01 -2.774703676263375884e-01 -2.775171617038365568e-01 -2.774431139328490947e-01 -2.775629273400718189e-01 -2.774878511278206505e-01 -2.775665268844949019e-01 -2.773515826603785150e-01 -2.774472276979039753e-01 -2.771474370695312661e-01 -2.774035189441961258e-01 -2.771952595882939407e-01 -2.774066042679872446e-01 -2.773454120127962219e-01 -2.775953232398788995e-01 -2.775505860449072881e-01 -2.775130479387817317e-01 -2.775079057324631449e-01 -2.773988909585093920e-01 -2.773412982477414523e-01 -2.773562106460652488e-01 -2.771674916741737049e-01 -2.771870320581842906e-01 -2.774127749155695377e-01 -2.774174029012562714e-01 -2.775778397383956708e-01 -2.776863402917176260e-01 -2.775418442941656738e-01 -2.776590865982291323e-01 -2.775999512255655777e-01 -2.775253892339462625e-01 -2.773166156574122243e-01 -2.772929615083468136e-01 -2.776457168618008398e-01 -2.776215484921035204e-01 -2.776344040079000153e-01 -2.770924154619225921e-01
3.128292067141002497e-01 3.128796003360222455e-01 3.128631452758028342e-01 3.128333204791551303e-01 3.128708585852807422e-01 3.128590315107480091e-01 3.128780576741266306e-01 3.128605741726435685e-01 3.128826856598133643e-01 3.128502897600063948e-01 3.128487470981108354e-01 3.129047971469832157e-01 3.127880690635516658e-01 3.128749723503355118e-01 3.128482328774789822e-01 3.128286924934683966e-01 3.128878278661320067e-01 3.128358915823143960e-01 3.127988676968206927e-01 3.128734296884399524e-01 3.128929700724504825e-01 3.128430906711603954e-01 3.128307493759958091e-01 3.129191953246752700e-01 3.128374342442099554e-01 3.129361646055265345e-01 3.128636594964346873e-01 3.128734296884399524e-01 3.128600599520116599e-01 3.128775434534947775e-01 3.128610883932753661e-01 3.128230360665179566e-01 3.129037687057195094e-01 3.128734296884399524e-01 3.129366788261583876e-01 3.128888563073957130e-01 3.128050383444029858e-01 3.129397641499495619e-01 3.128605741726435685e-01 3.128688017027532187e-01 3.128765150122310712e-01 3.128662305995939530e-01 3.127726424445959608e-01 3.128456617743196611e-01 3.129176526627797106e-01 3.128754865709674204e-01 3.129099393533018580e-01 3.129063398088787751e-01 3.128533750837975136e-01 3.128765150122310712e-01 3.129083966914062986e-01 3.128538893044293667e-01 3.128641737170665404e-01 3.129166242215160043e-01 3.128867994248682449e-01 3.128831998804452730e-01 3.128009245793481052e-01 3.128528608631657160e-01 3.128775434534947775e-01 3.128235502871498097e-01 3.128076094475621960e-01 3.128672590408576593e-01 3.129058255882469775e-01 3.128502897600063948e-01 3.128801145566541542e-01 3.128960553962416569e-01 3.127942397111339035e-01 3.128903989692912724e-01 3.128076094475621960e-01 3.128482328774789822e-01 3.128595457313798067e-01 3.128364058029462491e-01 3.128564604075886879e-01 3.129289655166805351e-01 3.129217664278345357e-01 3.128929700724504825e-01 3.128544035250612754e-01 3.129371930467902407e-01 3.128693159233851273e-01 3.128487470981108354e-01 3.128214934046223972e-01 3.128698301440169804e-01 3.129521054451140927e-01 3.128034956825074264e-01 3.128250929490453691e-01 3.129335935023672133e-01 3.129222806484663888e-01 3.128867994248682449e-01 3.128677732614895124e-01 3.129027402644558586e-01 3.127669860176455208e-01 3.128549177456930730e-01 3.128348631410506897e-01 3.128646879376983936e-01 3.129248517516257100e-01 3.128235502871498097e-01 -3.127808699747057219e-01 -3.129577618720645327e-01 -3.129459347975318551e-01 -3.129654751815424407e-01 -3.129320508404716539e-01 -3.129207379865708294e-01 -3.127011657767678199e-01 -3.128281782728365434e-01 -3.128405195680010742e-01 -3.125787812663858301e-01 -3.125489564697381262e-01 -3.131727060961808640e-01 -3.128415480092648360e-01 -3.129860440068166771e-01 -3.128276640522046903e-01 -3.129577618720645327e-01 -3.129392499293177088e-01 -3.126374024184175315e-01 -3.129315366198398563e-01 -3.129243375309938568e-01 -3.130086697146183816e-01 -3.129767880354432652e-01 -3.126451157278953841e-01 -3.128986264994009781e-01 -3.128086378888259578e-01 -3.129649609609105321e-01 -3.126353455358901190e-01 -3.129922146543989703e-01 -3.128852567629726300e-01 -3.128220076252542503e-01 -3.128040099031392796e-01 -3.129047971469832157e-01 -3.130230678923104359e-01 -3.126615707881148509e-01 -3.129670178434380001e-01 -3.129243375309938568e-01 -3.131192271504676938e-01 -3.131053431934075482e-01 -3.131161418266765195e-01 -3.130996867664571082e-01 -3.131464808439560765e-01 -3.131418528582693983e-01 -3.127320190146792300e-01 -3.127006515561359667e-01 -3.131819620675542759e-01 -3.130914592363474580e-01 -3.130960872220341362e-01 -3.128173796395675166e-01 -3.128939985137142998e-01 -3.128158369776719572e-01 -3.128060667856666366e-01 -3.128235502871498097e-01 -3.130472362620076998e-01 -3.127772704302826390e-01 -3.129675320640697977e-01 -3.131253977980499315e-01 -3.125957505472370945e-01 -3.127448745304757249e-01 -3.127464171923712843e-01 -3.128939985137142998e-01 -3.128657163789620999e-01 -3.124903353177063692e-01 -3.127572158256402557e-01 -3.131295115631048120e-01 -3.127793273128101070e-01 -3.128127516538808384e-01 -3.128549177456930730e-01 -3.129382214880539470e-01 -3.126091202836653871e-01 -3.128734296884399524e-01 -3.127222488226739650e-01 -3.127983534761888396e-01 -3.126440872866316223e-01 -3.131382533138464264e-01 -3.128050383444029858e-01 -3.125103899223488080e-01 -3.129053113676151243e-01 -3.127531020605853751e-01 -3.127844695191286939e-01 -3.128600599520116599e-01 -3.126199189169343584e-01 -3.127083648656138193e-01 -3.128965696168735655e-01 -3.128235502871498097e-01 -3.128286924934683966e-01 -3.130215252304148765e-01 -3.129737027116520909e-01 -3.130158688034643810e-01 -3.128559461869568903e-01 -3.129968426400857040e-01 -3.127258483670969369e-01 -3.127289336908881112e-01 -3.128286924934683966e-01 -3.129994137432449697e-01 -3.130348949668431136e-01 -3.125998643122919196e-01
3.488195087377835568e-01 3.488765872279196989e-01 3.488704165803374058e-01 3.488174518552561443e-01 3.488565326232772601e-01 3.488791583310789646e-01 3.488832720961339007e-01 3.488462482106401419e-01 3.488755587866559926e-01 3.488359637980029682e-01 3.488549899613817007e-01 3.488997271563532565e-01 3.487747715428119455e-01 3.488688739184418464e-01 3.488627032708595532e-01 3.488251651647339968e-01 3.488673312565462870e-01 3.488493335344312607e-01 3.487809421903942386e-01 3.488560184026454070e-01 3.488853289786612577e-01 3.488436771074808207e-01 3.488246509441020882e-01 3.489105257896222834e-01 3.488251651647339968e-01 3.489321230561602261e-01 3.488807009929745240e-01 3.488519046375905819e-01 3.488580752851728195e-01 3.488925280675073126e-01 3.488549899613817007e-01 3.488231082822065288e-01 3.488940707294028720e-01 3.488549899613817007e-01 3.489269808498416947e-01 3.488791583310789646e-01 3.487804279697623855e-01 3.489244097466824290e-01 3.488729876834966714e-01 3.488596179470684344e-01 3.488688739184418464e-01 3.488627032708595532e-01 3.487526600556420942e-01 3.488328784742118494e-01 3.489038409214080816e-01 3.488627032708595532e-01 3.488971560531939908e-01 3.488899569643479914e-01 3.488380206805303807e-01 3.488668170359144338e-01 3.489156679959408147e-01 3.488359637980029682e-01 3.488467624312719950e-01 3.489249239673142267e-01 3.488771014485515520e-01 3.488611606089639938e-01 3.488184802965197950e-01 3.488297931504207305e-01 3.488699023597055526e-01 3.488426486662170589e-01 3.487932834855588804e-01 3.488591037264365258e-01 3.489084689070948153e-01 3.488436771074808207e-01 3.488575610645409664e-01 3.488950991706665228e-01 3.487747715428119455e-01 3.488704165803374058e-01 3.488282504885251156e-01 3.488369922392667299e-01 3.488395633424259401e-01 3.488539615201179944e-01 3.488431628868489676e-01 3.489223528641550165e-01 3.489259524085779884e-01 3.488704165803374058e-01 3.488483050931675544e-01 3.489382937037425192e-01 3.488488193137994076e-01 3.488380206805303807e-01 3.488369922392667299e-01 3.488488193137994076e-01 3.489418932481655466e-01 3.488220798409428780e-01 3.487989399125092094e-01 3.489146395546771084e-01 3.489182390991001359e-01 3.488781298898152583e-01 3.488596179470684344e-01 3.489084689070948153e-01 3.487464894080598010e-01 3.488477908725357013e-01 3.488467624312719950e-01 3.488565326232772601e-01 3.489115542308859341e-01 3.488328784742118494e-01 -3.486698705339130733e-01 -3.486606145625396613e-01 -3.489058978039356052e-01 -3.486565007974847807e-01 -3.488205371790472631e-01 -3.488786441104471114e-01 -3.486894109179236589e-01 -3.488195087377835568e-01 -3.490329103000042732e-01 -3.486647283275945974e-01 -3.486349035309468380e-01 -3.490241685492627144e-01 -3.486652425482263951e-01 -3.486570150181167449e-01 -3.489033267007762285e-01 -3.487763142047075049e-01 -3.488179660758879974e-01 -3.488956133912984314e-01 -3.487068944194068321e-01 -3.488071674426190261e-01 -3.490231401079990081e-01 -3.487824848522897980e-01 -3.486518728117981025e-01 -3.490185121223123299e-01 -3.486863255941324846e-01 -3.487943119268225312e-01 -3.488894427437161383e-01 -3.486611287831715145e-01 -3.487135792876209228e-01 -3.488961276119302291e-01 -3.486863255941324846e-01 -3.486858113735006870e-01 -3.490380525063228601e-01 -3.486734700783361562e-01 -3.487752857634438541e-01 -3.490452515951688595e-01 -3.486816976084458064e-01 -3.487907123823995592e-01 -3.488868716405568171e-01 -3.487814564110261473e-01 -3.487110081844617127e-01 -3.489125826721496959e-01 -3.487038090956157133e-01 -3.486729558577042476e-01 -3.490282823143175395e-01 -3.487917408236632655e-01 -3.487927692649269718e-01 -3.490390809475865108e-01 -3.486780980640228345e-01 -3.486652425482263951e-01 -3.489064120245674028e-01 -3.486626714450670739e-01 -3.488241367234702905e-01 -3.488796725517108177e-01 -3.486750127402317156e-01 -3.488390491217941425e-01 -3.488344211361074088e-01 -3.486498159292706900e-01 -3.486539296943255706e-01 -3.488256793853658499e-01 -3.486729558577042476e-01 -3.486616430038034231e-01 -3.489033267007762285e-01 -3.487835132935535043e-01 -3.488220798409428780e-01 -3.488961276119302291e-01 -3.486924962417147777e-01 -3.488267078266295562e-01 -3.488241367234702905e-01 -3.487680866745978547e-01 -3.486714131958086327e-01 -3.488195087377835568e-01 -3.486950673448741544e-01 -3.487989399125092094e-01 -3.488899569643479914e-01 -3.486683278720175139e-01 -3.487171788320440058e-01 -3.488966418325620822e-01 -3.486719274164405968e-01 -3.487053517575112727e-01 -3.488395633424259401e-01 -3.486585576800123043e-01 -3.487943119268225312e-01 -3.488462482106401419e-01 -3.486899251385555676e-01 -3.487948261474544398e-01 -3.488873858611886702e-01 -3.487896839411357974e-01 -3.487156361701483909e-01 -3.489130968927815490e-01 -3.486894109179236589e-01 -3.486924962417147777e-01 -3.488292789297888219e-01 -3.487773426459712667e-01 -3.488112812076738511e-01 -3.488400775630578488e-01
3.866255238125544946e-01 3.866892871709047830e-01 3.866944293772233698e-01 3.866280949157138158e-01 3.866599765948889322e-01 3.867047137898605436e-01 3.866975147010145442e-01 3.866466068584606397e-01 3.866975147010145442e-01 3.866471210790924928e-01 3.866651188012074636e-01 3.867185977469206892e-01 3.865771870731599669e-01 3.866800311995313155e-01 3.866851734058499579e-01 3.866358082251916684e-01 3.866723178900534630e-01 3.866702610075261060e-01 3.865802723969510857e-01 3.866594623742571346e-01 3.867103702168109280e-01 3.866543201679384922e-01 3.866301517982412284e-01 3.867309390420852200e-01 3.866291233569775221e-01 3.867391665721949257e-01 3.867062564517561030e-01 3.866584339329933728e-01 3.866615192567844916e-01 3.867201404088162486e-01 3.866651188012074636e-01 3.866229527093952290e-01 3.867165408643932212e-01 3.866640903599438128e-01 3.867355670277719537e-01 3.866959720391189848e-01 3.865807866175829388e-01 3.867299106008215137e-01 3.866970004803826910e-01 3.866661472424712254e-01 3.866738605519490779e-01 3.866851734058499579e-01 3.865483907177759693e-01 3.866358082251916684e-01 3.867293963801896606e-01 3.866718036694216654e-01 3.867011142454374606e-01 3.867077991136516624e-01 3.866419788727739060e-01 3.866784885376357561e-01 3.867391665721949257e-01 3.866440357553013740e-01 3.866491779616199609e-01 3.867494509848321549e-01 3.866872302883773704e-01 3.866640903599438128e-01 3.866409504315101997e-01 3.866368366664553746e-01 3.866826023026906922e-01 3.866620334774163448e-01 3.865936421333793782e-01 3.866692325662623442e-01 3.867299106008215137e-01 3.866517490647792266e-01 3.866615192567844916e-01 3.867144839818658086e-01 3.865699879843139675e-01 3.866769458757401967e-01 3.866538059473066946e-01 3.866440357553013740e-01 3.866481495203561991e-01 3.866743747725809865e-01 3.866455784171969334e-01 3.867283679389259543e-01 3.867509936467277143e-01 3.866748889932128397e-01 3.866507206235155758e-01 3.867643633831560068e-01 3.866548343885704009e-01 3.866404362108783466e-01 3.866604908155207854e-01 3.866538059473066946e-01 3.867530505292550713e-01 3.866394077696146403e-01 3.865972416778023502e-01 3.867191119675524869e-01 3.867417376753542468e-01 3.866820880820588391e-01 3.866630619186800510e-01 3.867299106008215137e-01 3.865375920845068869e-01 3.866532917266747860e-01 3.866733463313172803e-01 3.866615192567844916e-01 3.867185977469206892e-01 3.866517490647792266e-01 -3.859508663435579079e-01 -3.859668071831454661e-01 -3.869602814438935501e-01 -3.859709209482003467e-01 -3.861339288884990673e-01 -3.869319993091413501e-01 -3.859709209482003467e-01 -3.861210733727026279e-01 -3.870847228368029525e-01 -3.859709209482003467e-01 -3.859338970627066434e-01 -3.870744384241658342e-01 -3.859565227705083479e-01 -3.859657787418817598e-01 -3.869597672232616969e-01 -3.860789072808903377e-01 -3.861287866821804804e-01 -3.869556534582068164e-01 -3.860172008050674619e-01 -3.861077036362743353e-01 -3.870723815416384217e-01 -3.860789072808903377e-01 -3.859575512117720542e-01 -3.870682677765835411e-01 -3.859693782863047318e-01 -3.860819926046815120e-01 -3.869366272948280838e-01 -3.859714351688321998e-01 -3.860362269684461944e-01 -3.869520539137838444e-01 -3.859673214037773747e-01 -3.859904613322109324e-01 -3.870908934843852456e-01 -3.859842906846285837e-01 -3.860609095587753670e-01 -3.870975783525993918e-01 -3.859745204926233186e-01 -3.860809641634178058e-01 -3.869366272948280838e-01 -3.860789072808903377e-01 -3.860305705414957544e-01 -3.869757080628492552e-01 -3.860136012606444900e-01 -3.859770915957826398e-01 -3.870790664098525125e-01 -3.860922770173185747e-01 -3.860850779284726308e-01 -3.870914077050170987e-01 -3.859580654324039073e-01 -3.859590938736676136e-01 -3.869690231946351089e-01 -3.859776058164144930e-01 -3.861262155790212147e-01 -3.869412552805148175e-01 -3.859565227705083479e-01 -3.861390710948176541e-01 -3.869057740569166737e-01 -3.859560085498764948e-01 -3.859513805641897055e-01 -3.868960038649113531e-01 -3.859632076387224386e-01 -3.859580654324039073e-01 -3.869690231946351089e-01 -3.860850779284726308e-01 -3.861210733727026279e-01 -3.869643952089483752e-01 -3.860028026273754631e-01 -3.861257013583893616e-01 -3.868934327617521429e-01 -3.860639948825664858e-01 -3.859755489338870804e-01 -3.868893189966972068e-01 -3.859765773751507867e-01 -3.860742792952036040e-01 -3.869453690455696426e-01 -3.859776058164144930e-01 -3.860285136589683419e-01 -3.869613098851572563e-01 -3.859529232260853204e-01 -3.860084590543259586e-01 -3.869124589251307644e-01 -3.859698925069366404e-01 -3.860789072808903377e-01 -3.869191437933449662e-01 -3.859806911402056118e-01 -3.860732508539399532e-01 -3.869453690455696426e-01 -3.860855921491044840e-01 -3.860228572320179019e-01 -3.869844498135908140e-01 -3.859986888623206380e-01 -3.859950893178976106e-01 -3.869001176299662337e-01 -3.860778788396266314e-01 -3.861025614299558040e-01 -3.869124589251307644e-01
4.254219278242823421e-01 4.253571360246684030e-01 4.254075296465903988e-01 4.253843897181567302e-01 4.253710199817285487e-01 4.254183282798594257e-01 4.254383828845018090e-01 4.253607355690914305e-01 4.254085580878540496e-01 4.254013589990081612e-01 4.253771906293108418e-01 4.254306695750240119e-01 4.253648493341462000e-01 4.253483942739267887e-01 4.253987878958487845e-01 4.253782190705744926e-01 4.253895319244754281e-01 4.253607355690914305e-01 4.253339960962347899e-01 4.253653635547781087e-01 4.254137002941726364e-01 4.253946741307939039e-01 4.253201121391746442e-01 4.254496957384026889e-01 4.254044443227992800e-01 4.254167856179638663e-01 4.254208993830186913e-01 4.253946741307939039e-01 4.253751337467833737e-01 4.254574090478804860e-01 4.253936456895301976e-01 4.253216548010702036e-01 4.254316980162877182e-01 4.254034158815355737e-01 4.254481530765071295e-01 4.254106149703815176e-01 4.253473658326631379e-01 4.254085580878540496e-01 4.254121576322770770e-01 4.253885034832116663e-01 4.253936456895301976e-01 4.253998163371126018e-01 4.252882304599995278e-01 4.253267970073888460e-01 4.254368402226062496e-01 4.253962167926894633e-01 4.253915888070027851e-01 4.254296411337602501e-01 4.254162713973320131e-01 4.253478800532949355e-01 4.254599801510398627e-01 4.253792475118382543e-01 4.253622782309869899e-01 4.254712930049406316e-01 4.254080438672222519e-01 4.254059869846948394e-01 4.253581644659321093e-01 4.253699915404648979e-01 4.254224420449142507e-01 4.253802759531019606e-01 4.253602213484595218e-01 4.253386240819214681e-01 4.254517526209301015e-01 4.253730768642560167e-01 4.253807901737338137e-01 4.254137002941726364e-01 4.253026286376915266e-01 4.254106149703815176e-01 4.253633066722506406e-01 4.253633066722506406e-01 4.253653635547781087e-01 4.253993021164805821e-01 4.253987878958487845e-01 4.254075296465903988e-01 4.254738641080998973e-01 4.253895319244754281e-01 4.253658777754099063e-01 4.255103737729618030e-01 4.253622782309869899e-01 4.253669062166736681e-01 4.253813043943656114e-01 4.253725626436241081e-01 4.254939187127423916e-01 4.253607355690914305e-01 4.253427378469764042e-01 4.253993021164805821e-01 4.254651223573583940e-01 4.253823328356293731e-01 4.253843897181567302e-01 4.254522668415619546e-01 4.252568630014562090e-01 4.253715342023604573e-01 4.253864466006843092e-01 4.253653635547781087e-01 4.254363260019743964e-01 4.253797617324700520e-01 -4.251437344624476311e-01 -4.251504193306617774e-01 -4.254342691194469839e-01 -4.251930996431059762e-01 -4.253005717551640585e-01 -4.254070154259584902e-01 -4.251720165971997756e-01 -4.252974864313729397e-01 -4.255499687616148830e-01 -4.251956707462651863e-01 -4.251015683706353965e-01 -4.255407127902414155e-01 -4.251607037432989511e-01 -4.251529904338210986e-01 -4.254358117813425433e-01 -4.252733180616756203e-01 -4.252969722107411421e-01 -4.254476388558752209e-01 -4.252496639126102651e-01 -4.252702327378845015e-01 -4.255211724062308298e-01 -4.252748607235711797e-01 -4.251437344624476311e-01 -4.255360848045546818e-01 -4.251756161416228585e-01 -4.252542918982969988e-01 -4.253890177038435194e-01 -4.251817867892050962e-01 -4.252203533365944144e-01 -4.254270700306009290e-01 -4.251509335512936860e-01 -4.251766445828865648e-01 -4.255736229106802382e-01 -4.252239528810173863e-01 -4.252023556144793326e-01 -4.255617958361475051e-01 -4.251930996431059762e-01 -4.252568630014562090e-01 -4.253905603657390788e-01 -4.252620052077747959e-01 -4.252172680128031845e-01 -4.254676934605176597e-01 -4.252285808667040645e-01 -4.251488766687662180e-01 -4.255448265552962406e-01 -4.253036570789552329e-01 -4.252445217062916227e-01 -4.255571678504608268e-01 -4.251632748464582723e-01 -4.251262509609644580e-01 -4.254424966495566340e-01 -4.252126400271165063e-01 -4.252758891648349415e-01 -4.254152429560683069e-01 -4.251391064767609529e-01 -4.253324534343392305e-01 -4.253905603657390788e-01 -4.251627606258264191e-01 -4.251365353736016317e-01 -4.253813043943656114e-01 -4.251802441273095368e-01 -4.251283078434919260e-01 -4.254445535320841021e-01 -4.252928584456862060e-01 -4.252728038410438227e-01 -4.254558663859849266e-01 -4.252167537921713869e-01 -4.253051997408507923e-01 -4.253617640103550812e-01 -4.252419506031323571e-01 -4.251787014654139774e-01 -4.253766764086789332e-01 -4.251951565256333887e-01 -4.252301235285996239e-01 -4.253972452339532251e-01 -4.252013271732156263e-01 -4.251956707462651863e-01 -4.254352975607106901e-01 -4.251180234308548633e-01 -4.252116115858528000e-01 -4.254142145148044896e-01 -4.251910427605785081e-01 -4.252373226174456788e-01 -4.254023874402718119e-01 -4.252126400271165063e-01 -4.252321804111270920e-01 -4.253987878958487845e-01 -4.252815455917854370e-01 -4.251925854224740675e-01 -4.254759209906274209e-01 -4.251956707462651863e-01 -4.251843578923643618e-01 -4.253854181594205475e-01 -4.252707469585164102e-01 -4.252794887092579690e-01 -4.253977594545850227e-01