6.970110000000000028e+00 6.064189999999999969e+00 2.156029999999999891e+00 7.821189999999999642e+00 3.245400000000000063e+00 2.327970000000000039e-01 3.203990000000000116e+00 1.125729999999999897e+00 3.104649999999999910e-01 2.387859999999999872e+00 6.512719999999999620e-01 4.618579999999999686e+00 6.923059999999999770e-01 1.130530000000000079e+01 1.143319999999999936e+01 2.361930000000000085e+00 5.092200000000000060e+00 5.970019999999999882e+00 3.180779999999999941e+00 5.029869999999999619e-01 7.150400000000000311e+00 5.462740000000000151e+00 1.379019999999999913e+00 5.185120000000000395e+00 9.526609999999999800e+00 8.379229999999999734e+00 9.028040000000000731e+00 9.475450000000000372e+00 7.292519999999999669e+00 6.421620000000000106e-01 9.905950000000000699e+00 1.199030000000000040e+00 5.943740000000000023e+00 6.153730000000000366e+00 8.027400000000000091e+00 4.178300000000000125e+00 3.737670000000000048e+00 1.040690000000000026e+01 1.606919999999999904e+00 9.907780000000000697e+00 2.119479999999999809e+00 1.188849999999999962e+00 3.439789999999999903e+00 2.680000000000000160e+00 9.599230000000000373e+00 8.224940000000000140e+00 8.826859999999999928e+00 2.694819999999999993e+00 9.963880000000000514e-01 9.117810000000000414e+00 8.842370000000000729e+00 1.092680000000000007e+01 9.864369999999999195e+00 7.120709999999999873e+00 6.733249999999999957e+00 8.001580000000000581e+00 9.336100000000000065e+00 9.388329999999999842e+00 1.089949999999999974e+01 9.712490000000000290e-01 7.630050000000000443e-01 1.648390000000000022e+00 2.299549999999999983e+00 6.057780000000000165e+00 1.041939999999999955e+01 3.352259999999999796e+00 5.975170000000000314e+00 5.619030000000000413e-01 1.377050000000000107e+00 1.198020000000000085e+00 9.248079999999999634e-01 8.158590000000000231e+00 7.096250000000000391e+00 1.161870000000000047e+01 9.442769999999999442e+00 8.060430000000000206e+00 8.349790000000000267e-01 1.161650000000000027e+01 9.764789999999999637e+00 8.990980000000000416e+00 4.985089999999999577e+00 1.049450000000000038e+01 9.821719999999999118e+00 1.090629999999999988e+01 5.495239999999999903e+00 2.957720000000000127e+00 2.664630000000000054e-01 8.969640000000000057e+00 3.415379999999999860e+00 5.316040000000000099e+00 5.784730000000000150e-01 1.055359999999999943e+01 5.457099999999999618e+00 1.729370000000000074e+00 5.316709999999999603e+00 3.340019999999999989e+00 6.777529999999999610e+00 2.549990000000000201e+00 9.283920000000000172e+00 1.097649999999999970e+01 6.909139999999999837e+00 3.457450000000000134e+00 1.047450000000000081e+01 4.420300000000000118e+00 2.198209999999999997e+00 7.614410000000000345e+00 6.194180000000000241e+00 1.135790000000000077e+01 1.054049999999999976e+01 7.744399999999999895e-02 3.655050000000000132e+00 1.047879999999999967e+01 6.033800000000000274e+00 6.658310000000000173e+00 3.638240000000000141e+00 2.544239999999999835e+00 3.160880000000000134e+00 1.072020000000000017e+01 5.888560000000000016e+00 9.927160000000000650e+00 3.673919999999999852e+00 6.749929999999999986e+00 4.437630000000000408e+00 4.381419999999999759e-01 2.661169999999999813e+00 5.510150000000000325e+00 3.711450000000000138e+00 9.921229999999999549e+00 4.352360000000000007e+00 4.591499999999999915e+00 8.055339999999999279e+00 1.154150000000000009e+00 7.931939999999999991e+00 5.906659999999999577e+00 5.353329999999999700e+00 6.818249999999999922e+00 9.610030000000000072e+00 4.058789999999999898e-01 4.623540000000000205e+00 2.974909999999999943e+00 7.014859999999999651e+00 4.197350000000000136e+00 1.110909999999999975e+01 1.031559999999999988e+01 5.872259999999999813e+00 9.325870000000000104e+00 7.075520000000000032e+00 3.231329999999999814e+00 4.773119999999999585e+00 1.017810000000000104e+00 1.326219999999999954e+00 7.646090000000000053e+00 6.052909999999999791e+00 1.068360000000000021e+01 3.904790000000000205e-01 9.048209999999999198e+00 1.771270000000000067e-01 2.133309999999999818e+00 1.131939999999999991e+01 6.063790000000000013e+00 5.870709999999999873e+00 7.296009999999999884e+00 1.308929999999999927e+00 9.095470000000000610e+00 2.338890000000000136e+00 1.080179999999999918e+00 7.888569999999999638e+00 1.129720000000000013e+01 3.027880000000000127e+00 9.364969999999999573e+00 7.133980000000000210e+00 1.294030000000000014e+00 3.759300000000000086e+00 8.387919999999999376e+00 4.438320000000000043e+00 8.043519999999999115e+00 9.994770000000000820e+00 7.685520000000000351e+00 1.128720000000000034e+01 6.485389999999999766e+00 6.534559999999999924e+00 3.099429999999999907e+00 3.571410000000000196e+00 1.881399999999999961e+00 6.312839999999999563e+00 8.773160000000000736e+00 4.731239999999999668e+00 4.785519999999999996e+00 1.036190000000000033e+01 9.514179999999999637e+00 3.791690000000000005e+00 8.341110000000000468e+00
7.897579999999999600e+00 9.247389999999999333e+00 6.196409999999999973e-01 5.404119999999999813e+00 5.049489999999999590e+00 7.170519999999999783e+00 9.973499999999999588e+00 4.137730000000000352e+00 1.040240000000000009e+01 3.310000000000000053e+00 9.711999999999999744e+00 8.428119999999999834e+00 4.199770000000000003e+00 2.966380000000000017e+00 7.447300000000000253e+00 1.840300000000000047e+00 8.231159999999999144e+00 1.077130000000000010e+01 6.388749999999999929e+00 5.558699999999999974e+00 4.435979999999999812e+00 2.180600000000000094e+00 6.502570000000000405e+00 8.656240000000000379e+00 1.177369999999999983e+01 1.107479999999999976e+01 2.087369999999999948e+00 5.538409999999999833e+00 1.115559999999999974e+01 6.984609999999999985e+00 1.092950000000000088e+01 1.469459999999999988e+00 3.449260000000000215e+00 2.909920000000000062e+00 3.696439999999999726e-01 7.235579999999999679e+00 1.391899999999999915e+00 2.261010000000000186e+00 6.201970000000000205e+00 4.641469999999999985e+00 1.052459999999999951e+01 4.805780000000000385e+00 1.648009999999999975e+00 3.259879999999999889e+00 8.402049999999999130e+00 1.080489999999999995e+01 7.435410000000000075e+00 7.962669999999999471e-01 7.598169999999999646e+00 2.884259999999999824e+00 7.640099999999999669e-01 4.670239999999999725e+00 7.867119999999999891e+00 4.081170000000000186e+00 3.545910000000000117e+00 5.831080000000000041e+00 2.959670000000000023e+00 1.016230000000000011e+01 9.940540000000000376e+00 1.150779999999999959e+01 7.915360000000000174e-01 4.332880000000000287e+00 1.067869999999999919e+01 8.711370000000000502e+00 4.720449999999999591e+00 7.303020000000000067e+00 2.955929999999999946e+00 5.222360000000000113e+00 6.032720000000000304e+00 1.946129999999999916e+00 1.048499999999999943e+01 5.454439999999999955e+00 3.058390000000000164e+00 4.110249999999999737e-01 1.062470000000000070e+01 7.655000000000000249e+00 6.951039999999999885e+00 9.886730000000000018e+00 1.092970000000000041e+01 2.328289999999999971e+00 8.583750000000000213e+00 6.123579999999999579e+00 3.312269999999999937e-01 8.848750000000000782e+00 5.460849999999999760e+00 8.023709999999999454e+00 8.564659999999999940e+00 3.035070000000000157e+00 3.367539999999999978e+00 2.750119999999999898e+00 8.962020000000000763e+00 4.086859999999999715e+00 2.581100000000000172e+00 1.274880000000000013e+00 4.329979999999999940e+00 4.241080000000000183e+00 1.122620000000000040e+01 9.890539999999999665e+00 4.611119999999999663e+00 4.001759999999999984e+00 6.077200000000000379e+00 1.012909999999999933e+01 1.137180000000000035e+01 3.604890000000000150e+00 1.329990000000000006e+00 7.032009999999999650e+00 4.191729999999999734e+00 9.427400000000000446e+00 8.888799999999999812e+00 9.308600000000000207e+00 9.260870000000000601e+00 1.121230000000000082e+01 6.431580000000000297e+00 9.395410000000000039e+00 9.845709999999999740e-01 1.129400000000000048e+01 9.346379999999999910e+00 1.132469999999999999e+01 8.716970000000000551e-01 1.127810000000000024e+01 5.509170000000000122e+00 4.720729999999999649e+00 1.037039999999999962e+00 7.620020000000000238e+00 1.105199999999999960e+01 3.866309999999999913e+00 7.597920000000000229e+00 1.969100000000000072e+00 6.961439999999999628e+00 8.390040000000000830e+00 1.068899999999999961e+00 9.908149999999999125e+00 8.626039999999999708e+00 6.261269999999999669e+00 6.570620000000000349e-01 6.343460000000000321e+00 2.373460000000000125e+00 2.986099999999999977e+00 4.180080000000000240e+00 2.439519999999999911e+00 4.998770000000000380e+00 2.081580000000000208e+00 6.713300000000000267e+00 1.095399999999999929e+00 1.125060000000000038e+01 5.094809999999999839e+00 7.262100000000000222e+00 8.447520000000000806e+00 3.914800000000000224e-02 9.592899999999999761e-01 1.874859999999999971e+00 9.771220000000000461e-01 3.537539999999999907e+00 1.664029999999999898e+00 7.950529999999999653e+00 4.845449999999999591e+00 2.070590000000000153e+00 9.603509999999999991e+00 2.267609999999999904e+00 1.049039999999999928e+01 7.472159999999999691e+00 6.863430000000000142e+00 1.107319999999999993e+01 6.295869999999999855e+00 3.356310000000000127e+00 8.881209999999999383e+00 1.077710000000000079e+01 6.823409999999999975e+00 2.876520000000000188e+00 3.443109999999999893e+00 1.184399999999999942e+01 6.872650000000000148e+00 8.680849999999999511e+00 6.175290000000000390e+00 7.960460000000000313e+00 7.319359999999999644e+00 3.634659999999999780e+00 1.055460000000000065e+01 2.536729999999999929e+00 5.820800000000000196e+00 4.605419999999999625e+00 1.003550000000000075e+01 1.075880000000000081e+01 5.202600000000000335e+00 8.356199999999999406e+00 1.632549999999999946e+00 4.655389999999999695e+00 1.172359999999999935e+01 2.235489999999999977e+00 5.080199999999999605e+00 2.407290000000000152e+00 1.078650000000000020e+01
9.620020000000000238e+00 4.042560000000000042e-01 8.299030000000000129e+00 5.809120000000000061e+00 7.936160000000000103e+00 5.355179999999999829e+00 1.054540000000000077e+01 -7.150299999999999712e-02 1.099869999999999948e+01 1.552059999999999995e+00 2.292879999999999918e-01 3.548230000000000217e+00 3.580309999999999881e+00 1.128999999999999915e+01 6.474219999999999864e+00 3.728040000000000243e-01 8.743290000000000006e+00 4.856220000000000425e+00 8.501450000000000173e+00 1.050409999999999933e+01 2.558699999999999974e+00 7.796830000000000149e-01 3.274439999999999795e+00 1.547830000000000039e+00 4.959340000000000082e+00 8.895820000000000505e+00 8.272309999999999164e+00 2.700580000000000203e-01 2.988609999999999989e+00 1.128500000000000014e+01 9.797769999999999868e+00 8.900309999999999278e+00 1.023579999999999934e+01 1.064060000000000006e+00 9.716079999999999828e+00 7.223720000000000141e+00 1.104570000000000007e+01 5.022249999999999659e+00 4.947280000000000122e+00 7.653120000000000367e+00 1.180210000000000009e-01 7.609529999999999905e-01 9.355570000000000164e+00 9.995319999999999538e+00 3.512910000000000199e-01 4.121410000000000018e+00 4.811230000000000118e+00 8.008480000000000487e+00 1.349699999999999900e+00 1.126270000000000104e+00 6.431790000000000340e+00 9.608870000000000466e-01 4.219820000000000348e+00 8.455780000000000740e+00 3.250579999999999803e+00 9.715920000000000556e+00 9.623920000000000030e+00 1.191510000000000069e+00 8.054000000000000270e+00 1.856209999999999916e+00 6.283940000000000303e+00 5.543300000000000338e+00 4.155879999999999797e+00 1.095829999999999949e+01 6.411999999999999644e-02 4.158120000000000260e+00 7.605800000000000338e+00 6.685769999999999769e+00 1.168459999999999965e+01 9.737230000000000274e+00 3.371030000000000193e+00 1.054020000000000046e+01 2.889279999999999848e+00 8.242499999999999716e+00 6.412709999999999688e+00 7.659749999999999837e+00 2.942619999999999791e+00 7.215690000000000381e+00 1.138979999999999926e+01 1.144979999999999976e+01 6.866179999999999950e+00 5.714470000000000383e+00 9.573859999999999815e+00 5.908539999999999903e-01 9.593289999999999651e+00 8.847289999999999210e+00 7.987190000000000012e+00 1.104810000000000070e+00 3.017669999999999852e+00 4.561110000000000220e+00 3.863649999999999807e+00 2.117599999999999927e+00 3.004059999999999953e+00 3.033729999999999816e+00 7.076929999999999943e+00 8.936019999999999186e+00 1.032900000000000063e+01 2.385060000000000180e+00 1.852479999999999905e+00 5.193439999999999834e+00 1.307639999999999914e+00 5.089759999999999840e-01 6.531810000000000116e+00 6.872139999999999915e+00 8.675219999999999487e+00 9.005769999999999609e-01 5.768790000000000084e+00 1.164320000000000022e+01 3.336869999999999781e+00 4.238400000000000389e+00 1.058660000000000068e+01 4.981580000000000119e+00 3.913699999999999818e-02 1.002720000000000056e+01 9.743939999999999824e-01 9.233480000000000132e+00 1.146809999999999974e+01 3.212110000000000021e+00 1.010730000000000040e+01 8.013219999999999787e-01 8.175430000000000419e+00 2.709739999999999926e-01 5.271550000000000402e+00 5.310850000000000293e+00 1.111710000000000065e+01 3.429019999999999957e+00 2.089669999999999916e+00 5.260360000000000369e+00 5.995289999999999786e+00 4.053609999999999935e+00 4.603679999999999772e+00 2.712279999999999802e+00 6.482829999999999870e+00 7.453509999999999636e+00 2.428580000000000183e+00 3.362080000000000179e+00 8.249610000000000554e+00 3.727720000000000145e+00 1.040310000000000024e+01 2.650150000000000006e+00 6.999740000000000073e+00 7.770050000000000345e+00 4.011429999999999829e+00 1.574529999999999985e+00 9.970599999999999241e+00 5.952130000000000365e+00 6.555039999999999756e-01 7.431110000000000326e+00 2.304399999999999782e+00 9.971270000000000522e+00 8.344260000000000232e+00 6.047019999999999840e+00 5.777059999999999640e+00 7.658229999999999649e+00 1.075179999999999936e+01 1.067559999999999931e+01 1.116029999999999944e+01 9.862360000000000682e+00 2.542320000000000135e+00 2.090349999999999930e+00 7.372199999999999864e-01 1.030780000000000030e+01 5.973119999999999763e+00 8.881199999999999761e+00 1.071410000000000018e+01 9.380789999999999296e+00 4.834719999999999906e+00 8.364010000000000389e+00 4.714330000000000354e+00 2.385139999999999816e+00 5.493089999999999584e+00 3.792949999999999822e+00 6.009579999999999700e+00 3.288340000000000152e-01 7.815970000000000084e+00 3.183879999999999821e+00 3.952850000000000197e+00 6.959920000000000551e-01 4.429890000000000216e-01 7.991650000000000142e-01 6.908760000000000012e+00 1.067680000000000007e+01 7.404560000000000031e+00 1.137100000000000044e+01 7.195009999999999906e+00 7.566959999999999908e+00 3.524249999999999883e+00 2.066510000000000069e+00 7.842500000000000249e+00 9.411730000000000373e+00 8.714119999999999422e+00 4.852470000000000283e+00
8.182610000000000383e+00 8.383150000000000546e+00 9.062500000000000000e+00 4.758600000000000385e+00 1.077689999999999948e+01 1.123399999999999954e+00 1.258080000000000087e+00 3.741210000000000147e+00 6.178749999999999964e+00 5.604650000000000354e+00 4.964489999999999625e+00 8.655359999999999943e+00 8.313129999999999242e+00 9.226480000000000237e-01 4.709389999999999965e+00 5.399280000000000079e+00 1.535349999999999993e+00 7.677900000000000169e+00 8.932629999999999626e+00 9.085739999999999483e+00 3.880380000000000162e+00 3.455420000000000158e+00 1.146509999999999962e+01 4.083389999999999631e+00 5.490999999999999659e+00 1.431769999999999987e+00 4.963729999999999976e+00 9.966279999999999584e-01 9.640930000000000888e+00 6.884470000000000312e+00 8.433479999999999421e+00 1.017360000000000042e+01 6.434999999999999609e+00 3.717540000000000067e+00 3.753670000000000062e+00 5.805830000000000268e+00 8.070100000000000051e+00 5.746190000000000353e+00 9.251440000000000552e+00 9.502010000000000289e+00 3.106040000000000134e+00 3.271839999999999749e-01 6.287019999999999831e-01 1.100709999999999944e+01 1.027560000000000073e+01 2.628769999999999829e+00 9.378439999999999444e+00 9.620990000000000819e+00 2.162570000000000103e+00 6.559520000000000017e+00 7.416260000000000296e+00 4.397940000000000182e+00 4.117270000000000429e+00 3.045470000000000121e-01 1.001009999999999955e+01 6.680869999999999642e+00 1.085650000000000048e+01 8.944860000000000255e+00 3.394540000000000113e+00 9.431820000000000093e+00 6.593740000000000379e+00 3.905829999999999913e+00 6.754780000000000229e+00 2.656350000000000100e-01 3.165490000000000248e-01 7.149389999999999912e-01 9.208569999999999922e+00 6.036690000000000111e+00 4.797399999999999665e+00 1.065719999999999956e+01 1.244480000000000031e+00 2.544620000000000104e+00 1.686890000000000001e+00 5.238339999999999996e+00 1.035060000000000002e+01 5.396440000000000126e+00 1.049590000000000067e+01 1.001520000000000010e+01 1.022419999999999973e+01 8.058360000000000412e+00 6.385329999999999728e+00 2.587839999999999918e+00 1.080320000000000036e+01 -6.396399999999999308e-02 4.104160000000000252e+00 6.461409999999999876e+00 1.049990000000000023e+01 4.706599999999999895e+00 8.602259999999999351e+00 4.221079999999999721e+00 6.364830000000000210e-01 1.404130000000000100e+00 6.360199999999999854e+00 9.991179999999999950e+00 3.735650000000000137e+00 5.772599999999999731e+00 3.082819999999999894e+00 3.728969999999999896e+00 8.888479999999999492e+00 7.943859999999999921e+00 3.411589999999999900e+00 3.756050000000000111e+00 1.134820000000000029e+01 4.905479999999999841e+00 8.137409999999999144e+00 2.871469999999999856e-01 4.942099999999999937e+00 7.299750000000000405e-01 6.998350000000000293e+00 8.953590000000000160e+00 2.080179999999999918e+00 6.157960000000000100e+00 6.571039999999999992e+00 1.144280000000000008e+01 7.514579999999999593e+00 7.171719999999999651e+00 6.489139999999999908e+00 7.345740000000000158e+00 4.195260000000000211e+00 2.933459999999999956e-01 7.854409999999999670e+00 5.956350000000000255e-01 1.102710000000000079e+01 3.960210000000000008e+00 8.040589999999999904e+00 1.177210000000000090e+00 1.155790000000000006e+01 1.966520000000000046e+00 9.135080000000000311e+00 1.206220000000000070e+00 1.740269999999999984e+00 3.871950000000000003e+00 1.134179999999999922e+01 4.199900000000000411e+00 3.450969999999999871e+00 8.338559999999999306e+00 1.165130000000000088e+01 2.128859999999999975e+00 2.773390000000000022e+00 5.559389999999999610e-01 7.912550000000000416e+00 5.136890000000000178e+00 2.044820000000000082e+00 2.521009999999999973e+00 2.236749999999999794e+00 8.001720000000000610e+00 5.250250000000000306e+00 4.713560000000000194e+00 7.547860000000000014e+00 8.407049999999999912e+00 3.375319999999999876e+00 4.786819999999999631e+00 2.496100000000000207e+00 8.070660000000000167e+00 1.584759999999999946e+00 7.592170000000000307e+00 1.058999999999999986e+01 9.877150000000000318e+00 2.094190000000000218e+00 5.071710000000000385e-01 7.754260000000000375e+00 1.184180000000000010e+00 1.111149999999999949e+01 1.074220000000000041e+01 5.015159999999999840e+00 1.116360000000000063e+01 7.690579999999999750e+00 3.878000000000000114e+00 4.967360000000000220e+00 1.956329999999999902e+00 1.078950000000000031e+01 5.470939999999999692e+00 5.782189999999999941e+00 3.830859999999999932e+00 9.898130000000000095e+00 1.126050000000000040e+01 8.048149999999999693e+00 9.153169999999999362e+00 6.881780000000000008e+00 1.841650000000000009e+00 1.118570000000000064e+01 8.354440000000000310e+00 9.103120000000000545e+00 2.275999999999999801e+00 2.015740000000000087e+00 7.976010000000000044e-01 9.042740000000000222e+00 9.366669999999999163e+00 1.132879999999999932e+01 5.256910000000000416e+00 1.069929999999999914e+01 6.010760000000000325e+00
6.710869999999999891e+00 1.165090000000000003e+01 1.131499999999999950e+01 3.266160000000000174e+00 6.471129999999999605e+00 1.032699999999999996e+01 6.500479999999999592e+00 8.470280000000000697e+00 4.533299999999999663e+00 3.099580000000000002e+00 1.366230000000000055e+00 1.021250000000000036e+01 8.098869999999999791e+00 9.502629999999999910e+00 3.822550000000000114e-01 9.078440000000000509e+00 3.452910000000000146e+00 5.898900000000000254e+00 -4.488099999999999729e-02 9.930790000000000006e+00 3.826810000000000045e+00 8.240249999999999631e+00 9.527280000000000193e-01 6.039789999999999992e+00 5.296610000000000262e+00 7.277549999999999741e+00 7.573789999999999800e+00 1.188209999999999944e+01 2.456370000000000164e+00 5.544410000000000061e+00 7.688150000000000261e+00 3.789649999999999963e+00 4.091940000000000133e+00 1.102810000000000024e+01 6.746500000000000163e+00 7.231309999999999683e+00 1.072630000000000017e+01 3.464349999999999929e-01 4.546249999999999680e+00 1.015670000000000073e+01 5.702189999999999870e+00 3.904389999999999805e+00 1.131670000000000087e+01 1.090990000000000038e+01 1.181489999999999974e+01 1.177489999999999926e+00 4.420289999999999608e+00 3.490380000000000038e+00 7.871620000000000061e+00 3.468300000000000161e+00 8.254780000000000229e+00 5.640640000000000320e+00 5.162010000000000431e+00 9.563330000000000553e+00 3.786830000000000140e+00 9.463960000000000150e+00 7.198999999999999844e+00 7.298630000000000173e+00 9.195769999999999555e+00 9.735329999999999373e+00 7.550350000000000117e-01 1.540829999999999922e+00 1.179729999999999990e+01 8.491170000000000107e-01 4.913509999999999600e+00 1.326950000000000074e+00 7.902809999999999668e+00 4.700700000000000323e+00 1.095340000000000025e+01 5.865099999999999980e+00 1.050140000000000029e+01 1.779379999999999962e+00 1.012260000000000026e+01 1.103689999999999927e+01 6.731209999999999916e+00 2.284019999999999939e+00 9.047860000000000014e+00 9.564909999999999357e+00 5.377559999999999896e+00 9.776489999999999903e-01 6.249839999999999840e+00 2.380539999999999878e+00 7.252889999999999837e+00 7.723989999999999689e+00 6.931490000000000151e+00 9.733729999999999549e+00 7.288759999999999906e+00 5.486159999999999926e+00 9.092420000000000613e+00 1.116310000000000002e+01 9.341879999999999740e+00 4.719640000000000057e+00 1.910230000000000095e+00 1.637890000000000068e+00 8.652950000000000585e+00 5.189540000000000042e+00 9.559469999999999246e+00 8.717879999999999185e+00 5.593869999999999898e+00 9.696490000000000720e+00 1.049719999999999942e+01 2.636829999999999785e+00 4.232039999999999580e+00 1.097799999999999976e+01 9.000849999999999795e+00 9.263220000000000454e+00 6.421960000000000335e+00 9.047940000000000538e+00 1.183980000000000032e+01 1.103560000000000052e+01 9.092409999999999215e+00 2.383230000000000182e+00 4.079760000000000275e+00 1.131869999999999976e+01 4.490839999999999832e-01 5.701850000000000307e+00 9.895120000000000360e+00 6.024829999999999686e+00 3.380619999999999958e+00 4.045239999999999947e-01 4.149740000000000428e+00 7.439280000000000115e+00 4.917699999999999960e+00 1.519009999999999971e+00 1.094469999999999921e+01 6.602850000000000108e+00 3.649989999999999846e+00 4.858389999999999986e+00 2.639949999999999797e+00 1.140590000000000082e+01 2.155819999999999848e+00 2.110829999999999984e+00 2.589710000000000178e+00 1.310929999999999929e+00 5.339179999999999815e+00 5.283739999999999881e+00 2.462800000000000100e+00 3.788710000000000022e+00 7.722339999999999982e+00 6.312879999999999825e+00 6.669550000000000090e+00 5.836350000000000371e+00 1.110289999999999999e+01 4.271729999999999805e+00 8.508660000000000778e+00 1.130719999999999947e+00 1.255460000000000020e+00 1.126089999999999947e+01 3.203450000000000131e+00 8.215049999999999741e+00 5.150299999999999656e+00 2.637550000000000061e+00 8.690780000000000172e+00 2.085339999999999971e+00 1.058859999999999957e+01 9.820839999999999570e-01 1.069810000000000016e+01 6.287939999999999863e+00 3.682599999999999763e-01 7.801280000000000214e+00 5.950479999999999769e+00 3.289769999999999861e+00 1.811579999999999968e+00 4.601569999999999716e+00 6.405339999999999812e+00 1.063780000000000037e+01 8.823850000000000193e+00 1.048610000000000042e+01 8.520419999999999661e+00 1.203630000000000067e+01 8.635189999999999699e+00 9.947160000000000224e+00 1.512489999999999890e+00 1.053870000000000040e+01 2.281480000000000175e+00 1.377680000000000016e+00 2.162659999999999805e+00 3.408279999999999976e+00 8.508100000000000662e+00 2.412619999999999987e+00 6.186040000000000427e-01 7.956249999999999822e+00 1.895329999999999959e+00 5.046669999999999767e+00 4.269129999999999647e+00 6.163369999999999571e+00 5.686860000000000248e+00 7.123800000000000132e+00 6.529760000000000009e-01 4.740059999999999718e+00 8.469360000000000221e-01 6.275359999999999827e-01
4.149490000000000123e+00 2.895859999999999879e+00 5.795079999999999565e+00 1.536999999999999922e+00 8.821500000000000341e+00 1.584270000000000067e+00 3.302410000000000068e+00 4.631829999999999892e+00 7.792089999999999961e+00 1.951799999999999979e+00 6.814919999999999867e+00 3.769670000000000076e+00 3.862769999999999815e+00 3.276879999999999793e+00 3.326999999999999957e+00 1.687840000000000007e+00 6.443360000000000198e+00 6.774949999999999584e+00 1.086270000000000024e+01 4.515270000000000117e+00 1.146490000000000009e+01 4.336140000000000327e+00 1.089679999999999954e-01 1.129560000000000031e+01 3.357099999999999668e-02 7.135200000000000209e+00 2.090539999999999898e-01 1.097039999999999971e+01 4.899219999999999686e+00 5.584509999999999863e+00 4.053340000000000387e+00 8.515330000000000510e+00 6.126689999999999969e+00 4.530409999999999826e+00 2.824059999999999793e+00 6.162220000000000475e-01 1.140570000000000084e+00 3.078570000000000029e+00 1.580999999999999961e+00 5.970970000000000333e+00 2.686240000000000183e+00 8.598390000000000200e+00 9.911910000000000664e+00 1.154170000000000051e+01 2.132099999999999884e+00 9.944129999999999470e+00 2.529830000000000023e+00 3.003120000000000012e+00 2.017040000000000166e+00 1.125740000000000052e+01 5.860350000000000392e+00 1.892910000000000093e+00 9.381300000000000194e-01 1.787360000000000060e+00 2.131450000000000067e+00 1.014969999999999928e+01 8.325110000000000454e+00 1.294859999999999900e+00 7.789430000000000298e+00 9.882429999999999382e+00 6.366769999999999818e+00 7.000000000000000000e+00 5.579229999999999912e+00 9.867969999999999686e+00 1.024000000000000021e+01 4.690349999999999575e+00 8.837529999999999220e+00 6.232649999999999579e+00 5.653859999999999886e+00 4.865800000000000125e+00 1.149210000000000065e+01 5.660949999999999704e+00 2.771220000000000017e+00 5.554549999999999876e+00 1.288960000000000106e+00 6.449650000000000105e+00 2.582860000000000156e+00 2.626599999999999824e+00 1.705280000000000129e-01 1.002989999999999959e+01 3.024859999999999882e+00 6.595439999999999969e+00 4.398010000000000197e+00 4.501170000000000115e+00 7.523530000000000051e+00 7.981000000000000316e-01 3.901110000000000078e+00 7.126019999999999577e+00 1.070719999999999894e+00 6.447210000000000107e+00 1.768720000000000070e+00 3.946439999999999948e+00 4.194679999999999964e+00 3.761330000000000062e+00 1.596400000000000041e+00 9.704499999999999460e+00 2.052080000000000126e+00 4.155490000000000350e+00 1.060330000000000084e+01 7.019720000000000404e+00 8.225139999999999674e+00 9.625930000000000319e+00 4.874159999999999826e+00 1.110299999999999976e+01 8.820249999999999702e+00 4.074379999999999669e+00 5.841750000000000220e+00 5.294850000000000279e+00 4.576220000000000176e+00 3.060729999999999840e-01 2.786869999999999958e+00 1.942649999999999988e+00 1.609750000000000014e+00 7.421149999999999913e+00 9.190619999999999123e+00 7.433300000000000018e+00 2.937069999999999848e+00 3.536960000000000104e+00 7.178099999999999703e+00 8.771549999999999514e+00 9.533210000000000406e+00 1.522310000000000052e+00 1.230399999999999966e-01 7.373899999999999899e+00 9.663679999999999382e+00 6.651930000000000121e+00 6.932870000000000310e+00 5.131190000000000140e+00 7.731539999999999857e+00 6.999950000000000117e+00 9.621130000000000848e+00 3.749579999999999913e+00 1.079369999999999941e+01 9.752159999999999940e+00 9.877940000000000609e+00 8.518149999999999888e-01 8.395649999999999835e+00 5.638600000000000279e+00 6.939630000000000187e+00 1.950150000000000050e+00 1.169609999999999950e+01 1.112889999999999979e+01 1.064140000000000086e+01 7.454559999999999853e+00 4.110529999999999795e+00 8.178649999999999309e+00 1.143909999999999982e+01 9.166560000000000485e+00 6.665820000000000078e+00 1.065000000000000036e+01 5.431500000000000217e-01 1.421110000000000095e+00 4.613990000000000258e+00 1.340940000000000021e+00 1.099959999999999916e+01 1.156819999999999915e+01 1.113010000000000055e+01 5.723169999999999646e+00 2.706220000000000070e+00 5.253429999999999822e+00 5.903730000000000366e+00 2.606500000000000039e+00 1.113649999999999984e+01 5.771759999999999557e+00 8.480880000000000862e+00 3.872869999999999813e+00 9.377610000000000667e+00 3.332770000000000010e+00 7.544719999999999871e+00 4.865579999999999572e+00 1.337129999999999930e+00 1.042730000000000068e+01 2.489599999999999813e+00 6.660359999999999836e+00 8.163740000000000663e+00 5.359070000000000222e-01 9.335160000000000124e+00 9.557890000000000441e+00 9.373530000000000584e+00 7.386049999999999560e-01 1.359450000000000103e-01 1.740089999999999915e+00 9.554700000000000415e+00 9.004020000000000579e+00 3.113710000000000200e+00 9.415549999999999642e+00 5.246730000000000338e+00 5.630209999999999937e+00 1.058120000000000083e+01 6.410809999999999675e+00 9.095290000000000319e+00 7.544399999999999995e-01