-1.049761187652025365e+04
-1.049483797902673905e+04
-1.049028074923021995e+04
-1.049430121432270244e+04
-1.049658637511944107e+04
-1.049727777936491111e+04
-1.049198906187464672e+04
-1.049388878728785676e+04
-1.049315438536108013e+04
-1.049761956162142087e+04
-1.049792806624181685e+04
-1.049199808623597710e+04
-1.049657611866637853e+04
-1.049846734973718048e+04
-1.049586308489947442e+04
-1.049619206845484950e+04
-1.049768028777929067e+04
-1.049539851335603817e+04
-1.049767363531109550e+04
-1.049581145459625623e+04
-1.049416521927518806e+04
-1.049328984199304432e+04
-1.049100587081747108e+04
-1.049426620954339160e+04
-1.049639695962414044e+04
-1.049169601123251778e+04
-1.049327636271520350e+04
-1.049526742613249553e+04
-1.049085793246255889e+04
-1.049458412114332714e+04
-1.049577931492731113e+04
-1.049732093766354410e+04
-1.049521931263932674e+04
-1.049344464222973147e+04
-1.049261427014535911e+04
-1.049294061047703872e+04
-1.049842857666464624e+04
-1.049766864601860470e+04
-1.049475294918346663e+04
-1.049492167783549121e+04
-1.049280514596929243e+04
-1.049125555437024923e+04
-1.049505775109355091e+04
-1.049575481512302395e+04
-1.049511543835802695e+04
-1.049204161869791824e+04
-1.049233299035076925e+04
-1.049549102072263122e+04
-1.049525740768382821e+04
-1.049700008397805323e+04
-1.049308625821744681e+04
-1.049503023541162293e+04
-1.049385386839443345e+04
-1.049311842900808006e+04
-1.049630480554998394e+04
-1.049494900254210916e+04
-1.049292080805893966e+04
-1.049266010628677031e+04
-1.049782188183640574e+04
-1.049523915368058806e+04
-1.049374679971621845e+04
-1.049653965950189195e+04
-1.049405110681910082e+04
-1.049730424254009813e+04
-1.049087260196116586e+04
-1.049303751887076578e+04
-1.049305533304905293e+04
-1.049694350017763645e+04
-1.049844646548928358e+04
-1.049453021602444824e+04
-1.049467773460321951e+04
-1.049062992879818376e+04
-1.049239209306571320e+04
-1.049548757825738357e+04
-1.049232200224687404e+04
-1.049230368299337715e+04
-1.049153054983672700e+04
-1.049691209607757082e+04
-1.049463692757417266e+04
-1.049599970009435310e+04
-1.050321915016596904e+04
-1.049677407633913390e+04
-1.049535302089444485e+04
-1.049374639933321305e+04
-1.049610393694421327e+04
-1.049407388986397928e+04
-1.049234501714252656e+04
-1.049683202127753975e+04
-1.049125329647633771e+04
-1.050306631674186610e+04
-1.049794799914042778e+04
-1.049227649901302357e+04
-1.049509471167223273e+04
-1.049257700579165612e+04
-1.049384786822432216e+04
-1.049527400426130953e+04
-1.050157620621472415e+04
-1.049401764871280648e+04
-1.049509637365629169e+04
-1.049111801619131620e+04
-1.049371589839814624e+04
-1.049111336513951937e+04
-1.049317272785692876e+04
-1.049498032367875931e+04
-1.049482081437080160e+04
-1.049442756197432027e+04
-1.049993400296339678e+04
-1.049317982056185792e+04
-1.049343718606359471e+04
-1.049278300163392305e+04
-1.049718260440960876e+04
-1.049466634626686209e+04
-1.049510158738589780e+04
-1.049938253056057692e+04
-1.049369839366412816e+04
-1.049314310328123793e+04
-1.049143880496779639e+04
-1.049065665397162411e+04
-1.049718501807512257e+04
-1.049610827495331068e+04
-1.050087138562450309e+04
-1.049595565581423762e+04
-1.049387978571311214e+04
-1.049734609738020117e+04
-1.049662500821763388e+04
-1.049157836520891578e+04
-1.049551514413044424e+04
-1.049373643826044281e+04
-1.049840755074246408e+04
-1.049342350228661599e+04
-1.049116115979295682e+04
-1.049483893725855341e+04
-1.050068887380411252e+04
-1.049555521840720758e+04
-1.049707332538874834e+04
-1.049696689103517019e+04
-1.049842430451321525e+04
-1.049351286724333295e+04
-1.049445850419769158e+04
-1.049233478982777342e+04
-1.049081086381777277e+04
-1.049776398979755868e+04
-1.049852318363529230e+04
-1.049841676266037211e+04
-1.049405058393145555e+04
-1.049461914740714383e+04
-1.049678680712815731e+04
-1.049307251201214240e+04
-1.049610664826312313e+04
-1.049366710170037732e+04
-1.050120229361958445e+04
-1.049395763942125450e+04
-1.049648037380987807e+04
-1.049719369570611525e+04
-1.050388735488620478e+04
-1.049377957257181879e+04
-1.049298472538055466e+04
-1.049651696384367460e+04
-1.049747077722618451e+04
-1.049784351868409794e+04
-1.050204024364706856e+04
-1.049291304177939128e+04
-1.049494874281604461e+04
-1.050466764556508861e+04
-1.049615114243259814e+04
-1.049346672294803102e+04
-1.049473892068864006e+04
-1.049573599261562777e+04
-1.049296999503724874e+04
-1.049162345565332907e+04
-1.049414411593756813e+04
-1.049565952402444782e+04
-1.049541566521893583e+04
-1.049617366402932566e+04
-1.049777177839575415e+04
-1.049724601143408108e+04
-1.049335771678870151e+04
-1.049347983784537610e+04
-1.049464349088898962e+04
-1.049456229688190069e+04
-1.049565256911415418e+04
-1.049652295935873735e+04
-1.049750068845361420e+04
-1.049456603246979830e+04
-1.049306853580540337e+04
-1.049782640450836880e+04
-1.049323117958422336e+04
-1.049597170709374950e+04
-1.049399843368347501e+04
-1.049794943735643938e+04
-1.049543011802831461e+04
-1.049765678612659576e+04
-1.049495179217708574e+04
-1.049025398912392120e+04
-1.049577366784864353e+04
-1.049888336628673642e+04
-1.049244024159051514e+04
-1.049633942896622102e+04
-1.049834390897418416e+04
-1.049486691649105524e+04
