-1.578657339801510517e-04 1.887909627800412327e-01 3.412779489509663033e-01 1.070728197375113488e+00 1.491963855035446596e+00 -3.077091118826983940e-01 1.663550023914810716e-01 1.104247669262723164e-01 2.723775264884241709e-01 -3.334412265214630744e-01 -2.396376130787100101e-01 4.709998735289425698e-01 1.111787172167012727e+00 -6.841880341874472249e-01 2.418431053687453980e-01 1.440439976164621938e-01 -1.516547200782642379e+00 3.988953423092984063e-01 2.083456421241792977e+00 -8.208179987337927974e-01 -1.004347970229303222e+00 3.246634803356611698e-01 -1.876716073086145409e+00 -1.349428066532221415e-01 -4.668352006315314162e-02 -2.429898173777869097e-01 -5.429233990861730419e-01 1.870304770248150117e+00 9.721922114573788853e-01 1.115097210374277559e+00 4.654061814956003129e-01 -2.233105937966129995e-01 9.454676509991299937e-01 5.544810220077946994e-01 -7.502926390745819907e-01 2.114310687594486982e-01 -1.011439072742613687e+00 1.325713239432232848e+00 -2.407709553513232292e-01 -2.443627864648455564e-02 -9.495814160539873816e-01 1.243030675594654633e-01 -4.076859440108967503e-01 -1.012765247752173359e+00 6.351756088826129854e-02 7.387427294624381302e-01 -1.371986925651795808e-01 -3.001531539181891417e-01 -6.070143159789551657e-01 4.611798021223663113e-01 6.200570080853803345e-01 -1.636517959518711152e+00 -4.188774418426362001e-01 2.029802640513815870e+00 3.256486756442363184e+00 6.412639811638018439e-02 -9.258753307047399295e-01 2.747444840568626923e-01 -4.855029522298421885e-01 1.131638145439227028e+00 3.874698740900640037e-01 1.705921803979841556e-01 4.675653939287685579e-01 9.940075075432873719e-01 1.445980189252251025e+00 -1.062374683210593890e-01 -1.556083054062980947e-02 -2.325783922445747720e-01 3.703082747224628046e-01 -1.031117267882524002e+00 7.528637422338678720e-01 3.352862501485665558e-01 -3.558242221849419185e-01 -5.048633590192647125e-01 -1.817152868856866110e-01 -2.232334607018344672e-02 -7.959364050201198637e-01 -2.442414303957272381e-01 -5.114392124594541178e-01 2.175271543501154370e-01 -2.806667630739617114e-01 -3.199994992047166392e-02 -6.929745221239907993e-01 4.992465270574888286e-02 -1.710980192335420424e+00 -3.121401510674116087e-01 3.827303025262364655e-01 -5.380907535879793369e-02 -1.387660370510802044e-01 -7.220953507266940630e-01 1.025531289158659431e+00 7.981578381497428376e-01 -1.675161125782145488e+00 -7.011989669099142342e-01 -6.373559043616874309e-01 -4.607324301726505311e-01 5.850735500588734039e-01 -1.481135396969798512e-01 1.066442168408583968e-01 6.125319033587824924e-01 1.111716209719816550e+00 5.840980735202403462e-01 -2.788891023496315458e-01 1.694634661110576701e-01 2.460689705213476297e-01 -1.565757601030741686e+00 -1.460111486436318051e+00 -8.834552139003145621e-01 -3.477962096803878245e-01 -1.072917234604929382e+00 -7.907762009794332414e-01 4.839237806694088317e-01 2.745475375548614427e-01 3.091083062219817518e-02 -9.947870660211829419e-01 5.510234024791871993e-02 8.215188814550140883e-03 -8.391617913340335133e-02 8.603687644124552447e-01 8.826941673651660381e-01 1.583782576839231071e+00 -3.436999281270135959e-02 -1.013803973428524907e+00 -1.838852979521238620e-02 -6.603415666057028954e-02 -6.029195770874764548e-01 -4.383232092569468996e-01 8.986925996635062308e-01 -3.546158037000775587e-01 -1.778642885737082291e-01 -2.395925159292961570e+00 3.837124639330836695e-01 -2.937742469800009859e-01 9.194650563080085659e-01 -1.185194224247151151e+00 7.673904750838328459e-01 5.092460614645832884e-01 -7.276381349174825264e-01 -4.603081981513683640e-01 9.089718700943310026e-01 1.491640924478640495e-01 8.013460060672572549e-02 3.176351127394373419e-01 -6.628195958306225544e-01 8.725352245621957881e-01 -4.431342574886025787e-01 -5.899617313853076084e-01 -4.080284149517136028e-01 4.451253197751535717e-01 -3.864265204280258048e-02 -2.852965485328877282e+00 -5.643010934143711799e-01 -1.501804495267297312e+00 -1.778219167936431866e+00 -5.073953814105293114e-01 -5.666248564497337048e-01 3.002020048782155781e-02 1.254395979999961552e+00 9.396559294178802313e-02 -6.363398043931376424e-01 1.645968820511614084e-01 1.271978211844422058e+00 -4.911511516501613217e-01 2.250928825066300099e-01 -6.644450472479230818e-01 5.934723156389965643e-02 2.996106511515798584e-02 1.465782311564438833e+00 9.286438945866589689e-01 1.469236331548623431e+00 1.642543082662181630e+00 -9.129406249310048072e-01 -2.409309808119571628e+00 4.637041112041531132e-01 -2.927634949060225367e+00 -2.903181701132889203e-01 7.255200601348628098e-01 4.555043490085586844e-01 7.757429608070889326e-01 -4.584302644038260044e-01 1.802077976813341031e+00 6.161689858879082493e-01 -4.674527796103918331e-01 8.466637561321977978e-01 1.771408829888115877e+00 9.702093767009377645e-01 1.852634092455010539e-01 1.764869486112788044e+00 -5.895590966305634950e-01 -5.921445979675412641e-01 -4.750940981997894275e-01 -3.714117921984282922e-01
-9.348896183811961080e-01 -9.494682875149786927e-01 1.445155379358752101e-01 7.785742596060944987e-01 1.387089071388808659e+00 -9.838994725828710541e-02 -8.333001903514936082e-01 -6.102096829853155269e-01 3.886088727896275796e-01 -5.117009507610694417e-03 -9.192840506455948191e-01 -8.468725297087317250e-01 -2.775109910562542637e-01 -6.505322938323955251e-01 2.254432210231142708e+00 1.878525101269019060e-01 9.370179775764531094e-01 -5.304180675400385070e-01 -9.629017873016154638e-01 -1.276512609376138752e+00 5.112726049747324808e-01 -1.445770387234453391e+00 6.480995160230792473e-01 -2.341186887252397764e+00 -1.084447603833062823e+00 1.572774655773064578e-01 -4.904389560750392341e-01 -8.750533629964003524e-01 -1.420551464786282247e+00 -2.300557800908730854e+00 -5.432247323764413105e-01 -1.598758224300807496e-01 -9.987074841184622187e-01 1.359439942234480780e-01 -2.465327975312827866e-02 4.773988350717731644e-01 1.485902222227114267e-01 -1.407488718075214640e-01 -7.648116586150690566e-01 -4.221494277231433584e-02 1.785785410313578403e-02 -1.131696766591258729e+00 6.273419717769008752e-01 5.925472327222855995e-01 8.096393564178496760e-01 1.752167208064651982e+00 1.164688133889951072e+00 3.598464559673287405e-02 5.793718716928411006e-01 -1.748185597712182127e-01 -1.165763883451796268e+00 -4.345627137761753911e-02 -3.370515695777321907e-01 1.460816482922594250e+00 9.801199509387209519e-01 -1.899808693221587408e-01 1.243538725578929416e+00 1.341191280451133450e+00 -7.621675361260596415e-02 4.767524597375287221e-01 -3.873788570382252217e-01 -7.123498413117369983e-03 -6.474371998492471914e-01 -1.992243965562968455e+00 -1.123093855420288362e-01 -5.329660307708907752e-01 -4.264056318930251055e-01 5.558581048599082752e-01 4.085308085090380015e-01 6.002415160367643443e-01 8.513159101886097480e-01 4.526190570432080951e-01 1.754813901656821218e-01 8.395628834268820118e-01 8.157596103782137620e-01 -4.458061478917324516e-01 -4.976421586860944185e-02 7.494508599002318305e-02 1.095701322361257099e-02 -3.557152074109881656e-01 1.047586212059013588e+00 1.317587525007625493e-02 1.634439479724744571e+00 3.127267225421711316e+00 -1.269081092804538735e-01 -4.741818707988746939e-01 1.487799696358667323e-01 -2.035856045792038826e-01 -2.459306451713780262e-01 -5.781943064458880954e-01 3.724916555253283690e-01 3.131907038182958347e-01 5.138951301972040087e-01 -7.841967479948207531e-01 4.069737484357746071e-01 3.366345366452960786e-01 -1.498513483223411269e+00 7.391561628504512704e-01 3.652817680460589828e-02 2.526994856147035229e+00 -2.432705818427809141e-01 1.369417879375037117e+00 4.229310430835662299e-02 -6.079501975289351989e-01 1.615593807787810976e-01 4.539976825572171193e-01 1.061508735666546466e+00 6.725954442628592767e-02 -1.878792495997584633e-01 8.637878173936734683e-02 6.533250260840117729e-01 -2.740965660607226906e-01 2.988975814013834942e+00 5.123936059521810193e+00 -3.948643667761700948e-01 -1.361265939698205196e+00 -1.588932496467280631e+00 -5.540521620008258957e-02 8.854689018946672041e-01 1.026078419910955608e+00 7.395829659748927032e-01 1.132528261352971910e+00 6.428668068733006669e-01 -3.037398428253929375e-02 3.891914847655217891e-01 1.884788308565039372e-01 -4.852309295155898261e-01 3.779495933118603435e-01 -5.555855679250241153e-01 1.011839650614830388e+00 -3.361460270450317145e-02 1.344949204828745637e-01 -1.614146276709133021e+00 -1.126394637656179532e+00 -6.013414339683068599e-01 5.017081012221891179e-01 -5.024789179493429625e-01 4.648497947719308909e-01 7.018396858172083475e-01 -3.220928913970071417e-01 1.370778507166931226e-01 -1.164883537730056817e+00 -2.608841811457845439e-01 -6.742769457290321844e-01 2.998921869475215995e+00 -5.207324134066295684e+00 -3.269113958278247800e+00 -3.223803407302153201e-01 6.703066482304629314e-01 2.079168849613368120e-01 -9.130686658683371260e-01 -5.284666002421405384e-01 -4.923621412381850027e-01 8.748461320817618736e-01 -1.749461379099819913e+00 7.299613837322131982e-01 1.195605135159731436e+00 -3.121211249040329871e-01 -1.136688820485328044e+00 -1.730534974523684655e+00 4.762884270393408670e+00 -2.103607185142379876e+00 -1.922516676324400042e-01 -2.160127745892961026e-01 5.840142555572476191e-01 2.104093123639485252e-01 7.422857096159339862e-01 -1.059229709826155386e+00 -1.492631827636229147e+00 -1.607983342436324903e-01 1.103178604569091892e+00 -1.086918433969136372e-01 -5.483674529156449262e-01 7.539348638100262789e-02 1.150553751382093148e+00 1.050530639397027732e+00 -3.586298099523546612e-01 -9.548341798084082344e-01 -6.182839753467368471e-01 -7.914220620930457750e-01 4.837484314339455249e-01 -4.427866443414671394e-01 1.878396546111054666e-01 5.064697842731864519e-01 1.820083926458451740e-01 -1.021034429733068460e+00 1.815569069310745687e-01 -2.292770957880517768e-01 -4.626797837054935636e-01 1.550042504300554791e+00 -1.929428315837191876e+00 -1.081618876137216301e+00
-1.097000757897959922e+00 -4.825724088488881902e-01 1.122650597235627323e+00 -1.849805878979796092e-01 3.345514288656426527e-01 6.703174468637319861e-02 6.422821380148791004e-02 1.560649333273872452e-01 -6.177101051215843075e-01 2.034970557863980289e+00 5.916478608371673609e-01 3.237193712555713754e-01 2.043913883093240180e-01 -2.932415144053969747e-01 -6.478166946755576916e-01 3.443894979943339929e-01 -7.319663299758243369e-01 6.264215168458765470e-01 -1.907293688738900039e+00 -6.032270810253269333e-02 1.945881319174094015e+00 3.344418484489938503e+00 1.285559292952401789e+00 4.302010943767629048e-01 4.642275878073837125e-01 2.020043761362430579e-01 -3.320162183064604200e+00 8.521772297469704105e-01 -1.827298441923407846e-01 -1.002832562027220265e+00 8.006600357443598437e-01 -7.527948366691989968e-01 2.296976768428477200e+00 1.507277859672784937e+00 -1.560506379938216170e+00 1.165274345410268308e+00 1.439997746421224634e-01 1.082994930548066281e-01 -2.773094165685662249e-01 -5.505950566928502488e-01 2.017497855014105834e+00 1.063502883276888245e+00 1.592437938514650764e+00 -1.642297799420785687e+00 -5.143682131785126677e-01 6.915614438276472820e-01 8.980529091974759348e-01 -1.519984765706607344e-01 1.285321208799851789e+00 8.573559457304039677e-01 -9.088011488445545405e-01 2.638075254378925427e-01 -3.067994555849430996e-02 7.452908149885072164e-02 -2.454224409209136315e+00 6.995827714639871742e-01 5.609344909376022814e-01 5.858788195683617417e-01 -1.061306132737594554e+00 -4.657126569921871684e-01 -8.635199084444757922e-01 -5.946329116050981245e-01 7.219678240099934863e-01 -1.283141941762041105e+00 1.347496653838966107e+00 1.512097649655182341e+00 -1.145483021731349554e-01 -1.657333096475657463e-01 8.516059306249770811e-02 -5.131942474759826345e-01 3.251761583056227423e-01 5.810590295859644483e-01 9.235459112424270200e-01 -2.291094598620662948e-01 5.603513647410762744e-02 -8.520214208955176893e-01 -5.184423832447169339e-02 9.782173346008493642e-02 -1.798504657642565840e+00 1.318410278018597101e-02 -8.575076408168017528e-01 -2.938251548225548349e-01 2.518567294211528473e+00 8.698309382592588790e+00 -2.028942863617350767e+00 1.419845439858742342e+00 -2.118122090917812450e+00 1.190395051717754865e-01 -3.528936788039879202e-01 -3.920572363468617927e-01 -9.111161701291754511e-01 -2.235199844379052614e+00 -4.408428903530470788e-01 -4.391819577121483520e-01 -2.641674798801925683e-01 1.323974145255291668e-01 -3.158678906939338393e+00 -1.892347351853339577e+00 6.098584702937570601e-01 -3.859745204926233186e-01 4.500237855142249499e-01 2.042618047100960565e-01 7.499774218272535764e-01 -2.277523287704688926e+00 -9.494538893372869159e-01 -1.218997031702914180e+00 5.747150896507424722e-01 -4.446625212064820865e-01 3.894758487749388487e-01 -2.201314761622192862e+00 -1.204406021273967120e+00 -3.974719796003177708e-01 1.272614816986661124e+00 -5.207579187499697948e-01 -1.248584258418711901e+00 -4.313174673685247762e-01 -1.083052523258834166e+00 -2.376727760443837767e-01 3.440048609617049058e-01 9.154099124051828795e-01 1.125269008693044054e-01 -4.776646871384434417e-02 -6.544357426488233154e-01 7.534977762729476447e-02 -3.168720093217613498e-01 6.145913569893705075e-01 -2.047328308088772197e-01 -2.403086710032836248e-01 -4.618570306945221637e-01 -3.133922783059838180e-01 1.108108951987338386e+00 6.801688857288515910e-01 8.471363248928746037e-01 9.521098389008288976e-01 -1.252676940427663199e+00 2.208068535401004617e-01 1.317032166725219944e-01 5.329932844643792134e-01 1.416172876106018386e+00 -8.298235446595074449e-02 -1.231139837703589146e+00 -5.845567583238570064e-01 9.179157095442228576e-01 -3.555813557805157288e+00 1.152342724960324083e-01 4.202118443823055216e-01 2.741736991555012160e-01 -6.383982295824618403e-01 2.439925476099083848e-02 -1.381145195105171544e-02 4.781089737643680060e-01 4.517263700263040027e-01 -2.678400436329165246e-01 2.669220569609251026e+00 3.230351492828222426e+00 -2.949631250808547822e+00 5.451679721442295179e-01 -1.531971248635198013e-01 -9.115321746203479680e-01 -3.495563869032348170e-01 2.833926466434366076e-01 -7.898655162404141228e-01 -1.360065748743450875e+00 -5.947130786016047388e+00 -4.815012872727296944e+00 -5.199727038451238403e-01 1.437286261029441903e+00 1.700270519235731026e+00 1.658302402366708339e+00 4.142175744767465084e-01 -1.337236923792151755e+00 1.411789145219435992e+00 2.159292137366192854e+00 6.250233509478568816e-01 1.354457144311784628e-03 -1.144750257330952925e+00 2.916485617320298207e+00 3.937526217700948461e-01 2.964229974546972457e-01 7.940147625188698211e-01 -3.288307243362316723e-01 6.262281698882983527e-02 -1.135106049380471688e-01 1.986354082445676461e+00 -7.778846897387740045e-01 1.779825593190353938e-01 -1.170116761100467251e+00 -6.482404124762081166e-01 2.158116114781135408e+00 -8.832906632981203376e-01 -4.530551161390229953e-01 5.059128833288851768e-01
-3.974503823337798281e-01 4.612420228188209848e-01 -3.692140132178707845e-01 6.156167129292936524e-01 -7.751927447310018315e-02 -1.228987310138635383e-04 -1.354698828008757405e-01 1.453214245101217772e+00 -4.002436288060279290e-02 -2.452914689259795833e-01 -1.027474528926447667e-01 4.984741676684393830e-01 -3.044597517099929540e-01 -2.468994368417969376e-01 2.618822833922193061e-01 -4.099521143354912800e-01 2.970858278491611548e-02 5.203362578318468934e-01 -1.864337754036079708e+00 4.089149313210354020e-01 1.868670577080108197e+00 -1.373678711530605667e-01 5.800614415601616086e-02 -6.709458244758614853e-01 3.941465147740975117e-01 2.605000583337872544e-01 6.814606079560767693e-01 5.205378323195348766e-01 6.871016082875500697e-01 9.222511036914106120e-01 -1.674579542247514929e+00 -1.317033195166483761e+00 -1.716256610238906744e+00 1.036968584452426567e+00 2.271255966643613566e-01 -1.825596371631960646e-01 -1.770831874339171830e-01 4.783665983009284250e-01 -7.788951332803732697e-02 2.389990538980697909e+00 -1.747138644505720873e+00 -2.778411207019065854e-01 -1.006861994898452961e+00 3.575329773446032644e-01 -7.521284067303121157e-01 1.951359311565268595e-01 3.161407875832604186e-01 -4.843999489745086096e-01 -3.817573970907626318e-03 -7.351452419219653978e-01 8.031879443705697286e-01 1.254713768350449454e-01 5.130749482893919300e-01 -9.963086448708482479e-01 -5.195016777463426494e-02 -5.733133242082999459e-01 5.987019394649839565e-01 9.208015157302053000e-01 -6.336709993137988883e-01 7.582887698999609682e-01 6.252357240688138917e-02 -8.868249017008746071e-02 -1.437502747915453849e+00 -1.215643284741941693e-01 -4.207929136963041716e-01 -8.231001098979749964e-01 -4.265259595208796828e-01 -1.171691304675213763e+00 -1.346430160248494046e-01 -6.605200011649573488e-01 1.039421416866385339e+00 2.365795429810554074e-01 -3.837325185377261083e-01 1.411221959862497544e+00 -7.732592751552187782e-02 -2.781074869892085633e-01 4.869278576007184389e-01 5.838353067773613958e-01 6.335146762417143140e-02 1.897088466079062674e-01 1.277447462484855079e+00 4.340659766458013769e-01 -4.255227150681264309e-02 7.634309762185326198e-01 -5.734483585462256450e+00 -8.865127697773372839e-01 1.396355841395506836e-01 4.771931468190304115e-01 1.947045000463987208e-02 -8.180545770581922893e-01 -7.147018864818517336e-01 -8.787279836316516102e-01 1.449465576694979108e+00 -2.912036580413469578e-01 -1.822757873744108859e-01 3.668501409732233265e-01 3.428005562418954266e-01 -1.256064111729706445e+00 -1.164984324973900698e+00 -2.074376313324459431e-01 2.447782767353861300e-01 -2.448379263286815932e-01 -3.808796224721825441e-01 6.557752873948112793e-01 9.501665991330408845e-02 -2.401502910486716103e-01 -9.687052813527553541e-01 -7.461701322689829885e-01 -1.840304624364970998e+00 -3.049035241152857068e-01 -2.510579390916258813e-01 4.547024219331774475e+00 2.159659290897338657e+00 2.215394122522441833e+00 -7.638572651223423104e-01 -6.237362567063183816e-01 -3.414908362925551111e-01 -9.969257096290768949e-01 -3.640126715266354673e-01 9.835585443039497333e-01 -2.423352145134327340e-01 1.244182529810014676e-01 -2.971891861961644121e-01 -8.566602052155012359e-01 6.026578387858610997e-01 2.381062640370393557e-01 -3.439518962366235749e-02 6.479179961400335485e-04 6.969921279206907627e-01 2.038260027245970996e+00 -4.570387833740204298e-01 -8.562323736497960969e-01 2.806348813947865950e-01 2.979425194218351947e-01 6.228204297609808426e-01 -1.793023579927599975e+00 1.430236296166680132e+00 -7.783706282358790474e-02 -6.186752972475801915e-01 -8.745504552184439895e-01 3.918875435383489293e-03 6.563872099467212007e-02 -1.075374180783942979e+00 -8.916554903165410106e-01 1.885029992262012288e-01 -1.657883312551744759e-01 -1.103570440690567311e+00 2.533174245480062647e-01 1.650052760769823657e+00 -2.741966333956820545e+00 -1.993913125733976610e+00 5.344798963110783951e-01 1.437951148306433335e+00 1.102231924385843088e-02 8.947912077296058531e-01 -4.340418082761041130e-01 1.662430565599257504e+00 2.181914759844117313e+00 -1.777012292113463454e+00 1.845228801135635477e+00 2.224929829919601310e-01 -1.393530713244083508e+00 6.044082458167029381e-01 1.452660943701339358e+00 7.449771404030744448e-02 2.340752885039110165e+00 -2.354830703277464021e+00 1.512748652975113517e+00 1.006004274884515048e+00 -1.850448654769617507e+00 -1.151245378131940944e+00 8.623809097449122163e-01 5.860356568610781691e-01 1.122816176279085365e+00 1.769881080390868000e+00 2.171857118505622908e-01 2.329580927591381467e+00 -8.717484669954542742e-01 -2.011236704600612768e+00 -5.609756285881509763e-01 4.234447494947915502e-01 -9.712496450391848446e-02 -4.341688207721728365e-01 5.699261529062567277e-02 1.283062751784735389e-01 -4.616256314101863656e-01 -2.718838746818412824e-02 6.150032477154880883e-01 4.689177941905529369e-03 3.513808417050641175e-01 -8.884045874819398447e-01 7.195227049055126223e-01
1.159720248365578854e+00 9.235402548154766564e-03 -5.976200192555564117e-01 6.368802502772195062e-01 7.816744957955612527e-01 -1.123104139832925424e-01 9.395829100881565310e-01 5.661769702793861825e-01 1.229028447789183992e-01 4.906487580928369646e-02 -3.730141036872952620e-01 -1.060209814350475122e-01 1.412836612646529155e-01 -2.191402644722513782e-01 1.893602050195071496e-01 1.497555490186261551e+00 -2.524432494738491073e-01 1.046136624097808054e+00 2.081703957328423782e-01 2.415489711673231288e-01 2.122476511228378604e-01 -3.008956885105909529e-01 4.781686233576633305e-02 -4.843073892607742681e-01 1.418750149912886560e-01 -4.186223884092349912e-01 8.128897450318188778e-01 2.818957503841003614e-03 4.448131878516162208e-01 2.159731796006430504e-01 -1.286789308703804036e+00 -4.354675363999913174e+00 7.059426522387965419e-02 1.367917897791909754e+00 -1.379088312577743045e-02 -1.133499109905918401e+00 -2.436675601705746708e-01 5.658175300577179823e-02 3.666804481647104735e-02 3.592052228394027935e+00 3.948422552890002435e-01 2.355622603050523622e+00 3.499230262137490444e-01 1.349579761618619367e+00 1.423253694206691566e+00 2.862671399755181145e-01 -4.068529065872881767e-01 3.395785526068047400e+00 3.869895920199094008e-01 2.604794895085129069e-01 5.439199586707121892e-01 -1.956059288140443164e-01 7.362035079823273653e-01 2.031300050993783968e-01 -2.043152836558091712e-02 -9.565923001487278698e-01 -2.337712812663570894e+00 1.490116260305183848e+00 -7.008611239547841709e-01 -9.943571775729503903e-01 4.774024346161962612e-02 -1.703731224088129992e-01 -7.350747936954009631e-01 -3.364905548683760905e-01 8.025076304746227018e-01 -1.672568939576953406e+00 2.004673706676219636e-01 -2.719656357623065346e-01 -2.976735820313738956e-01 -5.999206423624853929e-02 -7.342422704924241872e-01 -6.116099057658626048e-01 6.091997536643479760e-01 2.392447485159711618e-01 -2.079148280788093439e-01 -3.216259790632808313e-01 4.266272609853555831e-01 9.387205620885320512e-01 2.993890220592493878e-01 -1.252024394445836464e-01 1.493605247292334459e-02 -5.082752129116369089e-01 -6.681248100894929820e-01 -3.216542611980329758e-01 -2.201573928820649007e-01 -1.312537878402788294e-01 -5.858963030698448593e-01 -2.060428078685333286e+00 9.103345547687525796e-01 -3.178202321669059693e-01 1.032732434887187134e+00 -3.696905928994759893e+00 -2.620852462756133150e+00 -3.939531678165191786e-01 -6.979727466656423518e-01 4.288306963928635307e-01 4.803741156476988294e-01 -3.960563302008149877e-01 -8.556117093471445056e-02 -1.102463323670178630e+00 4.543447814837207610e-01 -1.029647625316676196e+00 8.875391541585242461e-01 2.575228751415238104e+00 2.548147321838480028e+00 -8.528976528522022038e-01 1.524643604631233662e-01 1.087739130097580498e+00 1.058121050143871145e+00 -3.897072480592745497e-02 -4.064862672767739771e-02 4.471153536204407475e-01 -1.175927454240453196e+00 -1.384657322020756143e-01 1.688541146623069311e-01 6.508084303117027680e-01 -1.021529624201546804e+00 2.967711248224645382e-01 6.157123579668192237e-01 7.906862123688582211e-02 6.681114403530646895e-02 -1.660634392932180736e+00 5.597291577765290960e-01 1.833150272713942319e-01 4.066307632743257905e-01 -6.043162003236004498e-01 -1.780566070900228004e-01 3.041172807691761015e-01 -3.372850257445953459e-01 -8.142200338064334852e-01 1.294689280271025811e-01 4.364133938302293680e-01 -2.009137141760740097e-01 -1.117663685547876651e-01 4.938220136120275439e-01 2.314707610035544594e-01 -4.412892338614990417e-01 -2.482127563355601418e-01 -5.476948523291756965e-01 -5.554734678272791326e-01 -2.452991822354574358e-01 8.406170357221894041e-02 3.106807929142009761e-01 9.502416753452919140e-01 -3.131788767437631571e-01 4.047533437474153117e-02 4.467754537827831746e-02 4.837222061817208346e-02 -5.305995874230841070e-01 -1.478641426905291101e-01 -6.489001575468809069e-01 -5.654848293089064226e-01 5.733446916668430982e-01 -5.486492458219026647e-01 7.509966071195944837e-01 -6.847197383207875854e-01 -8.044801808184267600e-01 4.423582985551301472e-01 -5.073470446711347837e-01 -4.721226228565395644e+00 6.266309074871688090e+00 -6.664268535631006074e-01 4.488014830723004861e-02 2.476831090847473049e-01 3.646029968120075015e-02 -1.805865725987600701e-01 -4.352471414371772984e-01 -3.105851478766755158e-01 -1.577353790499752773e+00 -6.053816654728086388e-02 -2.206628717631804737e-01 1.412553791299007711e-01 1.304415763522604133e+00 7.144972266703726316e-01 -3.636681437032911468e-01 2.235605050236956215e-01 1.560428218402173939e-01 8.056397483432645723e-01 2.765900219045981379e-01 -5.076272949154969627e-01 -3.601009951800979714e-01 -9.434123111335969147e-01 -2.889405730405436232e-02 -3.049174080723457761e-02 8.596442275421682933e-01 1.200720602005446586e-01 4.127870126789198735e-01 -1.640019287801026460e+00 4.845562720465931839e-01 -6.047476314337286718e-01 -5.321088249775849377e-01 -3.328195337775476936e-01
6.086058288345530531e-01 -6.001556411912440936e-01 6.750153665563790595e-01 1.180464937095961009e+00 -8.856627630728773903e-01 -9.955697098228695197e-01 9.105818948926759637e-02 -1.221188640035889339e+00 3.674435515823865073e-01 -2.584262065255072960e-01 -2.664932997980825613e-01 -1.330750544741905239e+00 1.220828171372957627e+00 -7.226152277855016903e-01 -1.509096658047663908e+00 -4.542774185809474452e-01 -2.585584126499577806e+00 1.470845842126336400e+00 7.213625863262975724e-01 -2.609787977420462424e-01 2.854330741106458347e-01 3.310639845403873793e-01 -1.870402472168203323e+00 2.996060231658931539e+00 2.216769148492027941e-01 -2.349191245607886169e-01 1.743434199073822244e-01 6.008169289238125543e-01 -2.462977987025241067e-01 2.750987820722122779e-01 -5.317761242287733642e-02 1.138239195690377459e+00 1.859344671700746410e-01 -1.549177585197770934e+00 5.728289283730904069e-01 2.032827286270399991e-01 -8.847428223624849153e-01 2.446168628790461597e+00 -2.117534850956231673e-01 -2.955369953060072996e-01 -1.889508853965488344e-01 -4.942889259457538542e-01 1.219376526529224875e-01 5.238247305983659841e-01 1.114345934031134133e+00 -4.627934264651340640e-02 -1.238860346270292956e-01 -1.448631510830106772e-01 9.089446164008426754e-01 -1.020753665268074428e+00 -4.550070976575528170e-01 8.668901104656677736e-01 -2.342423587872013879e+00 6.629563785186965985e-01 2.401806300659511950e-01 -2.583526729751516871e-01 4.193844633856473880e-01 -1.410095302458098443e+00 4.002641976313022210e-01 -1.880144896259369064e-02 1.352812666731105562e+00 1.189514191775383312e+00 3.399589730302526314e-01 -2.888660110489242872e-01 -1.996009089029426586e-01 -5.781382563970157741e-03 -2.715979680105287120e-01 7.308052197890908819e-02 -1.140464228364423543e-01 -3.389778400646691892e-01 3.607967356950007032e-01 2.432685249602535293e-01 -3.407698989666914091e-01 -1.740379728520590613e-02 -2.783522560099725984e-01 2.213257021576443551e-01 1.384122532563624719e-01 -4.609216633651739281e-01 -8.164394100535290466e-01 1.454483341620641301e+00 9.571944525086327760e-01 8.030136235763701835e-01 -4.768666167178010618e-01 6.993364597813276351e-01 1.164344634507870513e+00 -6.197695587521721006e-01 7.789516975498776696e-02 -1.687846948770061750e-01 9.785927156621050671e-02 2.404099724677594696e-01 -1.636203770712646444e+00 5.937494805595675551e-01 4.965813215225731159e-01 -1.102937949313382848e+00 2.802803776911842792e+00 -2.179216644188762597e+00 -1.001264703320687566e-01 -1.240706398338660144e-01 2.147925290298990098e-01 -8.468545319866167820e-02 5.488431070001128509e-01 -5.111887870117397537e-01 4.378511547169020024e-01 -1.188759830108448989e+00 -9.516393270226796153e-01 -1.072998995685394696e+00 -8.700093728185132047e-01 4.916293768377885676e-01 -5.902029008616486161e-01 8.457654126883433765e-01 -3.563178739915248139e-01 1.397059809440519329e+00 1.096311702251271392e+00 8.121626370583728827e-01 -1.906626744579381416e+00 1.206861939011716789e+00 1.705102650513293350e+00 8.763851944329104082e-01 3.079471960352482829e-01 -1.838780474412146537e+00 3.405806657741679455e+00 -2.764126157866073630e-01 1.528176300372092289e+00 3.032914424344134718e-01 1.843146721797245813e-01 6.844682844318094039e-01 9.304668067265926823e-02 5.343955641274538149e-01 -2.452945542497707576e-01 2.697426599707880568e-01 9.331716072501614057e-02 -2.719414673926092707e-01 -8.426929444129968028e-01 -9.789974072993766763e-01 1.560735722340024667e+00 -1.570312053167100430e+00 2.059956538365920853e+00 -1.138844947594705337e+00 -2.502874308968511041e+00 -2.033341506902256735e-01 1.698691861895929855e-01 -1.074926808834227310e-01 1.046175704865829115e+00 -2.043101414494906454e+00 -1.293317339625230877e+00 5.611689755457291984e-01 1.417570013562774456e+00 -3.729385132544122544e-02 -1.148208391080192403e-01 1.481083974906612644e-01 -7.207825454535626841e-01 -9.650892818695359920e-02 -1.381536517006014986e+00 4.860212866267542564e-01 2.114809481607388408e-01 -1.171415168195906464e-01 1.781707640702951068e+00 -1.696932713114346569e+00 -5.965987770806880919e-01 7.738352022628987303e-02 1.117985073442787192e+00 -6.903386271650908679e-01 4.782066756844208233e-01 4.280984462130989487e-01 -1.238572382716452841e-01 -8.658950935430240747e-01 -1.336418798766866978e+00 -9.926669343560358405e-02 1.104961921720372775e+00 8.776460634222241208e-02 -4.596638796996513343e-01 -9.075875881533715939e-01 1.499575348828196542e-01 -2.708189237532650506e-01 -4.498849459436235487e-01 -1.937806512592040731e+00 -1.251717404728617922e+00 -1.482338673248344008e-01 -1.640080994276849335e-01 -4.511226750045037592e-01 -1.304726867004877833e-01 -2.897221884009664947e-02 8.069942054875763882e-01 3.107913503500502883e-01 1.869542695271737998e+00 -9.801281784688307130e-01 6.334617115166331081e-01 -1.545666486723450195e+00 5.327870819910045519e-01 9.362389333191892815e-01 5.625172620424586656e-01 2.131495941111153508e-02