LAMMPS (29 Oct 2020)
# bulk water
echo            screen
Reading data file ...
  triclinic box = (0.0000000 0.0000000 0.0000000) to (12.444700 12.444700 12.444700) with tilt (0.0000000 0.0000000 0.0000000)
  1 by 2 by 5 MPI processor grid
  reading atoms ...
  192 atoms
  read_data CPU = 0.005 seconds
Replicating atoms ...
  triclinic box = (0.0000000 0.0000000 0.0000000) to (49.778800 49.778800 49.778800) with tilt (0.0000000 0.0000000 0.0000000)
  1 by 2 by 5 MPI processor grid
  12288 atoms
  replicate CPU = 0.002 seconds
System init for write_data ...
Neighbor list info ...
  update every 10 steps, delay 0 steps, check no
  max neighbors/atom: 2000, page size: 100000
  master list distance cutoff = 8
  ghost atom cutoff = 8
  binsize = 4, bins = 13 13 13
  1 neighbor lists, perpetual/occasional/extra = 1 0 0
  (1) pair deepmd, perpetual
      attributes: , newton on
      pair build: full/bin/atomonly
      stencil: full/bin/3d
      bin: standard
Per MPI rank memory allocation (min/avg/max) = 4.951 | 4.960 | 4.969 Mbytes
Step PotEng KinEng TotEng Temp Press Volume 
       0   -1916424.2    521.42508   -1915902.8    328.30797    8458.1224    123348.33 
       1   -1916418.8    515.48402   -1915903.3    324.56726    9013.8136    123348.33 
       2   -1916410.3     509.1989   -1915901.1    320.60992     9216.224    123348.33 
       3   -1916407.5    503.47764     -1915904    317.00761    9518.9701    123348.33 
       4   -1916408.5    498.98087   -1915909.5    314.17629    9361.1215    123348.33 
       5   -1916397.1    496.07185   -1915901.1    312.34466    8936.0537    123348.33 
       6   -1916397.6    494.84935   -1915902.7    311.57493    8286.7079    123348.33 
       7   -1916397.2    495.11998   -1915902.1    311.74533    7551.3025    123348.33 
       8   -1916397.6      496.391   -1915901.2    312.54561    6581.0691    123348.33 
       9   -1916403.9    497.95773   -1915905.9    313.53208    5772.0978    123348.33 
      10   -1916400.7    499.07374   -1915901.6    314.23476    4821.6647    123348.33 
      11   -1916402.6    499.20887   -1915903.4    314.31984    3736.2495    123348.33 
      12   -1916404.7    498.18543   -1915906.5    313.67545    2989.5282    123348.33 
      13   -1916398.8    496.31052   -1915902.5    312.49494    2297.4532    123348.33 
      14   -1916395.2    494.24232     -1915901    311.19272     1803.785    123348.33 
      15   -1916395.8    492.64622   -1915903.2    310.18776    1638.6004    123348.33 
      16   -1916396.3    492.09158   -1915904.2    309.83854     1669.983    123348.33 
      17   -1916394.1    492.80779   -1915901.3    310.28949    1958.1138    123348.33 
      18   -1916395.1    494.62217   -1915900.4    311.43189    2424.9558    123348.33 
      19   -1916399.8    497.05957   -1915902.8    312.96656    2946.0662    123348.33 
      20   -1916402.1     499.4389   -1915902.7    314.46468    3767.9071    123348.33 
      21   -1916405.5    501.17971   -1915904.3    315.56075    4549.7069    123348.33 
      22     -1916404    502.07386   -1915901.9    316.12374    5538.6882    123348.33 
      23   -1916404.5    502.41028   -1915902.1    316.33556    6415.0498    123348.33 
      24   -1916403.6    502.88044   -1915900.7     316.6316    7325.1519    123348.33 
      25   -1916406.7    504.14012   -1915902.6    317.42473    8201.8116    123348.33 
      26   -1916410.1    506.34605   -1915903.7    318.81367    8930.8776    123348.33 
      27   -1916415.9    508.94963   -1915906.9    320.45298    9344.1466    123348.33 
      28   -1916414.6    510.89854   -1915903.7    321.68008    9713.1196    123348.33 
      29   -1916415.2    511.09931   -1915904.2    321.80649    9783.2207    123348.33 
      30   -1916409.4    508.98231   -1915900.4    320.47355    9789.3403    123348.33 
      31   -1916403.5    504.96318   -1915898.6    317.94296    9566.6329    123348.33 
      32   -1916403.4    500.43996   -1915902.9    315.09498    9074.0286    123348.33 
      33   -1916401.2    497.23387     -1915904    313.07631    8514.8972    123348.33 
      34   -1916400.4    496.87524   -1915903.5    312.85051    7742.2702    123348.33 
      35   -1916401.1    499.99149   -1915901.1    314.81261    6813.6019    123348.33 
      36   -1916411.8    506.13633   -1915905.7    318.68162     5727.179    123348.33 
      37   -1916419.2    514.12207     -1915905    323.70972    4567.5312    123348.33 
      38   -1916424.7     522.4266   -1915902.3    328.93856    3528.3608    123348.33 
      39   -1916432.4    529.66656   -1915902.8     333.4971     2618.657    123348.33 
      40   -1916440.9    534.85864     -1915906    336.76622    1889.4947    123348.33 
      41   -1916439.7    537.53846   -1915902.1    338.45353    1281.3636    123348.33 
      42     -1916442    537.83098   -1915904.1    338.63771    985.66198    123348.33 
      43   -1916438.7     536.2899   -1915902.4    337.66739    1108.7368    123348.33 
      44   -1916433.5    533.70462   -1915899.8     336.0396     1187.819    123348.33 
      45   -1916434.7    530.83676   -1915903.9     334.2339    1477.1943    123348.33 
      46     -1916433    528.32135   -1915904.7    332.65011    1929.5205    123348.33 
      47   -1916430.9    526.67034   -1915904.2    331.61057    2471.9323    123348.33 
      48   -1916427.6    526.51217   -1915901.1    331.51098    3142.8242    123348.33 
      49   -1916434.6    528.74466   -1915905.8    332.91664    3796.1508    123348.33 
      50   -1916433.3     534.1006   -1915899.2    336.28893    4506.5984    123348.33 
      51   -1916448.1    542.61293   -1915905.5    341.64859    4982.9375    123348.33 
      52   -1916460.4     553.1354   -1915907.2    348.27392    5645.4509    123348.33 
      53   -1916464.6    563.28703   -1915901.3    354.66575    6231.8945    123348.33 
      54   -1916474.1    570.18642   -1915903.9    359.00986    6697.6487    123348.33 
      55   -1916476.6    571.43031   -1915905.2    359.79306    7290.6996    123348.33 
      56   -1916470.3    565.84504   -1915904.4    356.27637    7862.1965    123348.33 
      57   -1916458.4    554.01451   -1915904.4    348.82744    8234.0035    123348.33 
      58   -1916439.8    538.25188   -1915901.5    338.90272    8642.3449    123348.33 
      59   -1916423.6    521.96117   -1915901.6    328.64551    8849.2659    123348.33 
      60   -1916411.1    508.86395   -1915902.2    320.39902    8692.7658    123348.33 
      61     -1916402    502.03455     -1915900    316.09899     8153.272    123348.33 
      62   -1916405.2    502.98478   -1915902.2    316.69729    7385.5052    123348.33 
      63   -1916413.8    511.09746   -1915902.7    321.80532    6304.5767    123348.33 
      64   -1916427.9     523.6615   -1915904.2     329.7161    5007.6021    123348.33 
      65   -1916438.6    536.57788     -1915902    337.84871    3743.1899    123348.33 
      66   -1916450.1    545.69261   -1915904.4    343.58767    2444.1576    123348.33 
      67     -1916450    548.18296   -1915901.8    345.15569    1325.0267    123348.33 
      68   -1916447.5     543.4629   -1915904.1    342.18377    519.60461    123348.33 
      69   -1916436.8    533.19664   -1915903.6    335.71976     -108.399    123348.33 
      70   -1916424.7    520.55952   -1915904.1    327.76298   -250.07637    123348.33 
      71     -1916409    509.16341   -1915899.9    320.58758   -257.53621    123348.33 
      72   -1916405.1    501.95282   -1915903.2    316.04753   -179.64978    123348.33 
      73   -1916401.2    500.62139   -1915900.5    315.20921    244.82214    123348.33 
      74   -1916411.1    505.45568   -1915905.7    318.25305    731.51307    123348.33 
      75   -1916417.2     515.4606   -1915901.8    324.55251    1138.7546    123348.33 
      76   -1916430.5    528.78242   -1915901.7    332.94041    1775.4392    123348.33 
      77   -1916449.7    543.04733   -1915906.6    341.92211    2626.7993    123348.33 
      78   -1916458.2    555.75777   -1915902.4    349.92506    3394.4572    123348.33 
      79   -1916468.4    564.64193   -1915903.8    355.51885    4376.7122    123348.33 
      80   -1916476.7    567.93908   -1915908.7    357.59485     5555.547    123348.33 
      81   -1916465.3    564.96268   -1915900.4    355.72081    6853.1555    123348.33 
      82   -1916457.7    556.24565   -1915901.4    350.23224    7922.0904    123348.33 
      83     -1916447    543.58587   -1915903.4    342.26119    8689.8164    123348.33 
      84   -1916431.8     529.9788   -1915901.8    333.69369     9379.171    123348.33 
      85   -1916419.5    518.74728   -1915900.8    326.62193    9701.2664    123348.33 
      86   -1916415.3    512.86777   -1915902.5    322.91998    9631.1526    123348.33 
      87   -1916412.3    514.16634   -1915898.1     323.7376    9121.1834    123348.33 
      88   -1916426.5    522.55943     -1915904    329.02219    8113.4399    123348.33 
      89   -1916441.7    535.84974   -1915905.8    337.39025    6798.2746    123348.33 
      90     -1916455    550.10095   -1915904.9    346.36332    5473.8764    123348.33 
      91   -1916463.8    560.80307     -1915903    353.10176    4216.0961    123348.33 
      92   -1916470.7    564.53313   -1915906.2    355.45034    2826.6146    123348.33 
      93   -1916462.6    560.16846   -1915902.4    352.70219    1650.3383    123348.33 
      94   -1916454.5    549.03345   -1915905.4    345.69119    726.20164    123348.33 
      95   -1916436.3    534.31646     -1915902    336.42484   -172.05516    123348.33 
      96   -1916421.6    519.99929   -1915901.6    327.41024   -615.32933    123348.33 
      97   -1916412.9    509.76029   -1915903.1    320.96339   -997.48578    123348.33 
      98   -1916407.8    506.17648   -1915901.7     318.7069   -1291.0565    123348.33 
      99   -1916413.7    510.26652   -1915903.4    321.28213   -1552.6784    123348.33 
     100   -1916423.7    521.30091   -1915902.4    328.22978   -1534.2927    123348.33 
     101     -1916438    536.97876     -1915901    338.10112   -1246.9253    123348.33 
     102   -1916454.6    554.12188   -1915900.5    348.89505   -1117.8428    123348.33 
     103   -1916474.9    569.43213   -1915905.4    358.53493   -441.11898    123348.33 
     104   -1916481.3    580.08507   -1915901.2     365.2424     393.3837    123348.33 
     105   -1916488.8    584.23693   -1915904.6    367.85656    1622.0875    123348.33 
     106   -1916484.3    581.40451   -1915902.9    366.07317    3098.7528    123348.33 
     107   -1916479.8    572.69181   -1915907.1    360.58734    4478.5503    123348.33 
     108   -1916464.5    560.42855   -1915904.1    352.86595    5803.7519    123348.33 
     109   -1916449.9     547.6803   -1915902.2     344.8392     7158.363    123348.33 
     110   -1916438.6    537.71173   -1915900.9    338.56262    8238.7257    123348.33 
     111   -1916434.6    533.01873   -1915901.5    335.60774    9078.0724    123348.33 
     112   -1916435.5    534.59936   -1915900.9    336.60296    9329.9108    123348.33 
     113   -1916448.7    541.74584     -1915907    341.10265    9192.6659    123348.33 
     114   -1916456.8    552.29822   -1915904.5     347.7468    8529.2522    123348.33 
     115   -1916464.6    563.09167   -1915901.5    354.54275    7678.2613    123348.33 
     116   -1916474.5    570.79994   -1915903.7    359.39615    6795.3792    123348.33 
     117   -1916474.7    573.01672   -1915901.7    360.79192     5592.338    123348.33 
     118   -1916476.3    568.80621   -1915907.5    358.14083    4472.6779    123348.33 
     119   -1916464.3    558.84221   -1915905.5    351.86713     3266.418    123348.33 
     120   -1916448.3    545.09419   -1915903.2    343.21089    2380.5004    123348.33 
     121   -1916432.8    530.16965   -1915902.6    333.81386     1538.298    123348.33 
     122   -1916418.8    516.75062   -1915902.1    325.36476    792.32719    123348.33 
     123     -1916411    507.15008   -1915903.8    319.31992    291.85621    123348.33 
     124   -1916409.2    502.95101   -1915906.3    316.67603   -33.098105    123348.33 
     125   -1916405.3    504.73755   -1915900.6    317.80089   -284.76017    123348.33 
     126   -1916414.7    512.02888   -1915902.6    322.39178   -611.58467    123348.33 
     127   -1916429.2    523.13973   -1915906.1    329.38757   -592.41688    123348.33 
     128   -1916443.9     535.4077   -1915908.5    337.11192   -420.24213    123348.33 
     129   -1916448.8     545.9661   -1915902.8    343.75987    85.389652    123348.33 
     130   -1916455.2     552.4396   -1915902.7    347.83582    857.05459    123348.33 
     131     -1916457    553.56202   -1915903.4    348.54253     1821.894    123348.33 
     132   -1916454.8    549.63061   -1915905.1    346.06718    3197.0217    123348.33 
     133   -1916446.4    542.44184   -1915903.9    341.54087    4581.9925    123348.33 
     134   -1916439.6    534.74969   -1915904.8    336.69762      5957.31    123348.33 
     135   -1916429.3    529.33709   -1915899.9    333.28965    7178.5279    123348.33 
     136     -1916431    528.03223   -1915902.9    332.46806    7952.4552    123348.33 
     137   -1916436.7    531.02225   -1915905.7    334.35069    8514.2812    123348.33 
     138   -1916437.7     536.7032     -1915901    337.92762    8883.6422    123348.33 
     139   -1916443.7    542.33341   -1915901.4     341.4726    9034.8973    123348.33 
     140   -1916452.7    545.24308   -1915907.5    343.30463    9047.2227    123348.33 
     141   -1916446.2    543.92312   -1915902.3    342.47354    8785.3566    123348.33 
     142     -1916444    538.50672   -1915905.5    339.06318    8406.1267    123348.33 
     143     -1916434    530.60026   -1915903.4    334.08499     7800.543    123348.33 
     144   -1916426.9    522.48993   -1915904.4    328.97843     6948.748    123348.33 
     145   -1916418.8    515.97166   -1915902.8    324.87429    5903.5081    123348.33 
     146   -1916417.2    511.75933   -1915905.5    322.22206    4970.2892    123348.33 
     147   -1916414.7    509.48094   -1915905.2    320.78751    3946.2626    123348.33 
     148   -1916415.3     508.0716   -1915907.2    319.90014    2715.4708    123348.33 
     149   -1916409.1    506.63196   -1915902.5    318.99368    1786.3052    123348.33 
     150     -1916409     504.9582   -1915904.1    317.93982    906.10327    123348.33 
     151   -1916407.7      503.494   -1915904.2    317.01791    297.55037    123348.33 
     152   -1916407.5    502.93116   -1915904.6    316.66353   -223.24925    123348.33 
     153   -1916408.6    503.62347     -1915905    317.09943    -522.3012    123348.33 
     154   -1916410.5    505.30891   -1915905.2    318.16065   -535.53305    123348.33 
     155   -1916411.2    507.29743     -1915904    319.41269   -172.64601    123348.33 
     156   -1916413.7    508.87133   -1915904.9    320.40367    222.76574    123348.33 
     157   -1916415.3     509.7293   -1915905.6    320.94388    751.36321    123348.33 
     158   -1916412.1    510.24171   -1915901.8    321.26651    1495.2384    123348.33 
     159   -1916419.5    511.30369   -1915908.2    321.93518    2261.4795    123348.33 
     160   -1916413.8    513.94389   -1915899.8    323.59754    3271.7007    123348.33 
     161   -1916423.1    518.92887   -1915904.1    326.73626     4207.377    123348.33 
     162   -1916429.9    526.17505   -1915903.8    331.29871    5024.9518    123348.33 
     163   -1916440.3    534.42022   -1915905.9    336.49017    5831.4229    123348.33 
     164     -1916444    541.54194   -1915902.5    340.97426    6561.8852    123348.33 
     165     -1916450    545.30466   -1915904.7    343.34341    7245.6434    123348.33 
     166   -1916445.6    544.29051   -1915901.3    342.70486    7773.0384    123348.33 
     167   -1916442.2    538.74331   -1915903.5    339.21214    8160.0308    123348.33 
     168   -1916434.1    530.67568   -1915903.4    334.13247    8257.8101    123348.33 
     169   -1916427.3     523.0269   -1915904.3    329.31653    8331.0999    123348.33 
     170   -1916419.3    518.39951   -1915900.9    326.40296    8121.6012    123348.33 
     171   -1916422.4    517.89322   -1915904.5    326.08418    7639.2984    123348.33 
     172   -1916425.6    520.62227     -1915905    327.80249    6792.0599    123348.33 
     173   -1916426.8     524.1951   -1915902.6    330.05207    5798.1031    123348.33 
     174     -1916428    525.87176   -1915902.1    331.10776    4788.8693    123348.33 
     175   -1916425.4    523.80685   -1915901.6    329.80762    3908.1834    123348.33 
     176   -1916420.9    517.88435     -1915903     326.0786    2967.8633    123348.33 
     177   -1916412.3    509.62089   -1915902.7    320.87563    2190.7766    123348.33 
     178     -1916406     501.3363   -1915904.7    315.65935    1421.5227    123348.33 
     179   -1916401.5     495.1709   -1915906.3    311.77739    964.11717    123348.33 
     180   -1916394.2    492.33438   -1915901.8    309.99141     706.0738    123348.33 
     181   -1916394.8    492.95181   -1915901.8    310.38017    497.93392    123348.33 
     182     -1916399     496.2682   -1915902.7    312.46829    452.67019    123348.33 
     183   -1916404.9     501.0797   -1915903.9    315.49778    555.15696    123348.33 
     184   -1916408.3     506.3201     -1915902    318.79733    844.05204    123348.33 
     185   -1916416.9    511.32232   -1915905.6    321.94691    1243.5158    123348.33 
     186   -1916419.1    515.78133   -1915903.3    324.75446    1849.4554    123348.33 
     187   -1916424.1    519.69593   -1915904.4    327.21923    2589.6576    123348.33 
     188   -1916424.4    523.17254   -1915901.2    329.40823    3486.4787    123348.33 
     189   -1916431.8    526.10582   -1915905.7    331.25513    4363.8661    123348.33 
     190   -1916430.2     528.0555   -1915902.1    332.48271    5350.2643    123348.33 
     191   -1916432.2    528.46041   -1915903.8    332.73766    6223.0106    123348.33 
     192   -1916433.1    527.02747   -1915906.1    331.83543    6834.4338    123348.33 
     193   -1916429.6    524.24615   -1915905.3    330.08421    7583.7782    123348.33 
     194   -1916424.5    521.36568   -1915903.1    328.27056    8302.5705    123348.33 
     195   -1916423.7    519.88911   -1915903.8    327.34086    8714.1716    123348.33 
     196   -1916423.5     520.8737   -1915902.6     327.9608    8911.1601    123348.33 
     197   -1916428.7    524.06507   -1915904.6     329.9702    8807.4918    123348.33 
     198   -1916430.2    527.90346   -1915902.3    332.38698    8482.3508    123348.33 
     199   -1916433.1    530.21784   -1915902.9     333.8442    7944.2926    123348.33 
     200   -1916433.6    529.08088   -1915904.5    333.12833    7099.9333    123348.33 
     201   -1916429.3    523.78383   -1915905.6    329.79312    6490.8387    123348.33 
     202     -1916416    515.22947   -1915900.7    324.40699    5790.5449    123348.33 
     203   -1916408.1    505.60387   -1915902.5    318.34636     4958.775    123348.33 
     204   -1916399.5    497.49469     -1915902    313.24053    4147.0133    123348.33 
     205   -1916398.7    492.96975   -1915905.7    310.39147    3210.8942    123348.33 
     206   -1916397.6    493.01568   -1915904.5    310.42039    2148.0213    123348.33 
     207   -1916397.2    497.38038   -1915899.9    313.16856    1129.4249    123348.33 
     208   -1916404.3     504.9095   -1915899.4    317.90916    433.50524    123348.33 
     209   -1916417.1    514.02018     -1915903    323.64557   -199.07536    123348.33 
     210   -1916427.8    523.08172   -1915904.7    329.35105   -738.73124    123348.33 
     211   -1916432.8    530.72958     -1915902    334.16641    -957.1773    123348.33 
     212   -1916436.6    536.17869   -1915900.4    337.59737   -699.51146    123348.33 
     213   -1916442.8    539.25936   -1915903.6    339.53707   -169.46014    123348.33 
     214   -1916442.5    540.29128   -1915902.2     340.1868    478.86477    123348.33 
     215   -1916443.9    539.97004   -1915903.9    339.98454    1204.1016    123348.33 
     216   -1916442.5    539.11469   -1915903.4    339.44598    2080.9811    123348.33 
     217   -1916441.4    538.49243   -1915902.9    339.05418    3290.3126    123348.33 
     218   -1916444.5    538.75077   -1915905.7    339.21684    4392.1146    123348.33 
     219   -1916447.2    540.34016   -1915906.8    340.21758    5467.3539    123348.33 
     220     -1916448    543.37348   -1915904.6    342.12746    6363.9311    123348.33 
     221   -1916450.6    547.40969   -1915903.2    344.66881    7079.4198    123348.33 
     222   -1916456.2    551.45096   -1915904.7    347.21334    7673.1291    123348.33 
     223   -1916459.2    554.20036     -1915905    348.94446    8083.4078    123348.33 
     224   -1916460.4    554.52321   -1915905.8    349.14774     8343.437    123348.33 
     225   -1916457.1    551.79209   -1915905.3    347.42813      8361.71    123348.33 
     226   -1916450.4    546.17793   -1915904.3    343.89325    8100.1672    123348.33 
     227   -1916441.4    538.65773   -1915902.7    339.15826    7717.9511    123348.33 
     228   -1916433.6    530.57918     -1915903    334.07172    7340.8934    123348.33 
     229   -1916427.5    523.22735   -1915904.3    329.44274     6699.891    123348.33 
     230     -1916421    517.35534   -1915903.7    325.74551      5759.67    123348.33 
     231   -1916411.9    513.03602   -1915898.9    323.02591    4814.6755    123348.33 
     232   -1916415.1    509.86946   -1915905.2    321.03213    3768.5175    123348.33 
     233   -1916409.1    507.32794   -1915901.8     319.4319    2717.0574    123348.33 
     234   -1916407.4    505.06499   -1915902.3    318.00706    1914.5675    123348.33 
     235   -1916407.2     503.0023   -1915904.2    316.70832    1272.8784    123348.33 
     236   -1916406.3    501.13082   -1915905.2    315.52997    611.80588    123348.33 
     237   -1916403.9     499.3389   -1915904.6    314.40171    239.74933    123348.33 
     238   -1916402.5    497.50388     -1915905    313.24632    112.57249    123348.33 
     239   -1916399.3    495.70145   -1915903.6    312.11144    249.21078    123348.33 
     240   -1916398.6    494.42341   -1915904.2    311.30674    714.16569    123348.33 
     241   -1916396.3    494.36872   -1915901.9    311.27231    1349.2209    123348.33 
     242     -1916398    496.10097   -1915901.9    312.36299    1946.3259    123348.33 
     243   -1916403.6    499.61646     -1915904    314.57647       2773.3    123348.33 
     244     -1916411     504.0697     -1915907     317.3804    3654.4505    123348.33 
     245   -1916410.2    508.07089   -1915902.2    319.89969    4733.2999    123348.33 
     246   -1916414.8    510.19873   -1915904.6    321.23945    5881.8276    123348.33 
     247   -1916416.4    509.55362   -1915906.9    320.83326     6808.776    123348.33 
     248     -1916411      506.033     -1915905    318.61656    7848.6811    123348.33 
     249   -1916401.6    500.29064   -1915901.3    315.00096    8780.5793    123348.33 
     250   -1916398.9    493.51098   -1915905.4    310.73225    9449.8275    123348.33 
     251   -1916392.6     486.9915   -1915905.6    306.62734     9807.155    123348.33 
     252   -1916387.5     481.8555   -1915905.6    303.39353    9983.1772    123348.33 
     253   -1916387.2     478.9808   -1915908.2    301.58352    9889.3429    123348.33 
     254   -1916379.4    478.67845   -1915900.7    301.39315    9375.8346    123348.33 
     255   -1916386.4    480.43951   -1915905.9    302.50198    8493.7947    123348.33 
     256   -1916388.4    483.21317   -1915905.1    304.24837    7365.6783    123348.33 
     257   -1916390.6    485.72225   -1915904.9    305.82818    6224.4148    123348.33 
     258   -1916387.1    486.88917   -1915900.3    306.56291    5116.6033    123348.33 
     259   -1916392.9    486.37341   -1915906.5    306.23818    4069.8223    123348.33 
     260   -1916388.1    484.50478   -1915903.6    305.06162    3126.0589    123348.33 
     261   -1916385.8    481.93515   -1915903.8    303.44368    2250.5856    123348.33 
     262   -1916379.8     479.2435   -1915900.5    301.74893     1375.823    123348.33 
     263   -1916378.7    476.85305   -1915901.9    300.24381    807.59605    123348.33 
     264   -1916373.6    475.22554   -1915898.4    299.21907    419.10959    123348.33 
     265   -1916376.1    474.99831   -1915901.1      299.076    475.32055    123348.33 
     266   -1916378.6    477.14567   -1915901.4    300.42806    814.60143    123348.33 
     267   -1916384.2    482.58135   -1915901.6    303.85055    1084.8447    123348.33 
     268   -1916391.5    491.48741     -1915900    309.45813    1395.8285    123348.33 
     269   -1916407.6    502.76559   -1915904.8    316.55928    1918.1439    123348.33 
     270   -1916415.7    514.05976   -1915901.6     323.6705    2630.8215    123348.33 
     271   -1916425.8    522.72943   -1915903.1    329.12923    3672.4115    123348.33 
     272     -1916435    526.87137   -1915908.1    331.73714    4627.6362    123348.33 
     273     -1916424    526.03998   -1915897.9    331.21367    5594.7246    123348.33 
     274     -1916427    521.44296   -1915905.5    328.31922    6502.3831    123348.33 
     275   -1916417.5    515.38825   -1915902.1    324.50696    7189.3945    123348.33 
     276   -1916412.6    510.40059   -1915902.2    321.36655    7861.6139    123348.33 
     277   -1916411.3    508.36233   -1915902.9    320.08319    8334.9172    123348.33 
     278   -1916414.9    509.80016   -1915905.1     320.9885    8669.2927    123348.33 
     279   -1916419.6    513.70096   -1915905.9    323.44458    8714.0747    123348.33 
     280   -1916420.2     518.0277   -1915902.2    326.16886    8522.3055    123348.33 
     281   -1916428.5    520.63911   -1915907.9    327.81309    8144.9873    123348.33 
     282   -1916423.2     520.1501   -1915903.1    327.50519    7532.8104    123348.33 
     283   -1916422.3    516.42175   -1915905.9    325.15769    6932.7539    123348.33 
     284   -1916411.3    510.63058   -1915900.7    321.51136    6188.5799    123348.33 
     285     -1916406    504.60613   -1915901.4    317.71815    5564.4064    123348.33 
     286   -1916405.4      499.871   -1915905.5    314.73674    4905.3863    123348.33 
     287   -1916401.4    497.03641   -1915904.4    312.95198     4193.052    123348.33 
     288   -1916395.7    495.58498   -1915900.1    312.03811    3789.4356    123348.33 
     289   -1916396.5    494.45386     -1915902    311.32592    3284.7094    123348.33 
     290   -1916394.6    492.92304   -1915901.7    310.36206     3001.544    123348.33 
     291   -1916399.8    491.16507   -1915908.6    309.25518    2920.3542    123348.33 
     292   -1916396.7    490.15336   -1915906.6    308.61817    3012.7431    123348.33 
     293     -1916397    490.96923     -1915906    309.13186    3147.5699    123348.33 
     294   -1916399.4    494.07306   -1915905.3    311.08615    3436.5681    123348.33 
     295   -1916403.1    498.92109   -1915904.2    314.13864    3669.6232    123348.33 
     296   -1916404.5    504.10308   -1915900.4    317.40141    4116.1398    123348.33 
     297   -1916410.8    507.99639   -1915902.8    319.85278     4555.689    123348.33 
     298   -1916409.4    509.65007   -1915899.7    320.89399    5330.5307    123348.33 
     299   -1916410.4    509.29382   -1915901.1    320.66969    6096.0158    123348.33 
     300   -1916410.7    508.11709   -1915902.5    319.92878    6645.5524    123348.33 
     301     -1916410    507.70232   -1915902.3    319.66762     7181.306    123348.33 
     302   -1916413.3    509.43732   -1915903.9    320.76004    7528.8854    123348.33 
     303   -1916418.1     513.7902   -1915904.3    323.50077    7826.3834    123348.33 
     304     -1916427    519.93758   -1915907.1    327.37138     7950.953    123348.33 
     305   -1916427.6    526.05659   -1915901.5    331.22413     8063.715    123348.33 
     306   -1916431.5    529.96818   -1915901.5    333.68701     7823.278    123348.33 
     307   -1916432.9    530.07227   -1915902.8    333.75255    7514.9171    123348.33 
     308   -1916428.8    526.12704   -1915902.7    331.26849    7197.0862    123348.33 
     309   -1916422.3    519.50526   -1915902.8    327.09918    7026.5237    123348.33 
     310   -1916413.9    512.75779   -1915901.1    322.85073    6471.9667    123348.33 
     311   -1916415.7    508.58939   -1915907.1    320.22615    5862.8608    123348.33 
     312   -1916414.2     508.7776   -1915905.5    320.34466    5126.7197    123348.33 
     313   -1916415.8    513.47069   -1915902.4    323.29959    4553.2567    123348.33 
     314   -1916425.5    521.26882   -1915904.2    328.20958    4007.4679    123348.33 
     315   -1916432.3    529.93252   -1915902.3    333.66456    3542.8967    123348.33 
     316   -1916439.2    537.28782   -1915901.9    338.29572    3162.3024    123348.33 
     317   -1916441.9    541.91111   -1915899.9     341.2067    2902.4075    123348.33 
     318   -1916447.2    543.39738   -1915903.8    342.14251    2936.8012    123348.33 
     319   -1916443.5    542.14545   -1915901.4    341.35425    2874.4315    123348.33 
     320   -1916442.3    539.07332   -1915903.2    339.41993    3159.9047    123348.33 
     321   -1916438.1    535.50461   -1915902.6    337.17294    3577.6669    123348.33 
     322   -1916438.3    532.95167   -1915905.3    335.56552    3901.1546    123348.33 
     323   -1916437.4    532.75779   -1915904.7    335.44345    4436.1569    123348.33 
     324   -1916440.8    535.57348   -1915905.3     337.2163    4919.0815    123348.33 
     325   -1916444.5    541.09731   -1915903.4    340.69431    5358.0557    123348.33 
     326   -1916451.8    548.29581   -1915903.5    345.22674    5530.1024    123348.33 
     327     -1916460    555.89492   -1915904.1    350.01142    5842.3095    123348.33 
     328   -1916466.7    562.70951     -1915904    354.30213    6044.8482    123348.33 
     329   -1916474.3    567.78957   -1915906.5    357.50072    6206.6632    123348.33 
     330   -1916476.1    570.52736   -1915905.6    359.22453    6395.8495    123348.33 
     331   -1916476.1    570.57415   -1915905.5    359.25399    6503.4227    123348.33 
     332   -1916466.7    567.88064   -1915898.8    357.55805    6541.9861    123348.33 
     333   -1916469.1    562.81454   -1915906.3    354.36826    6753.1568    123348.33 
     334   -1916460.2    556.30475   -1915903.9    350.26946    6713.8758    123348.33 
     335   -1916452.3    549.72201   -1915902.6    346.12473    6634.8553    123348.33 
     336   -1916447.1    544.32648   -1915902.7    342.72751    6484.4795    123348.33 
     337   -1916444.3    540.90739   -1915903.4    340.57472    6245.5002    123348.33 
     338   -1916441.5    539.69269   -1915901.9    339.80991    6004.1344    123348.33 
     339   -1916442.2    540.35062   -1915901.9    340.22416    5861.1006    123348.33 
     340   -1916443.3    542.14532   -1915901.2    341.35417    5473.9852    123348.33 
     341   -1916449.7    544.23885   -1915905.4    342.67233    4977.1064    123348.33 
     342   -1916449.7    545.89545   -1915903.8    343.71539    4590.6771    123348.33 
     343   -1916448.9    546.45313   -1915902.4    344.06652    4335.5606    123348.33 
     344   -1916444.9    545.33748   -1915899.6    343.36407    4273.8374    123348.33 
     345     -1916446    542.37354   -1915903.6    341.49787    4181.5187    123348.33 
     346   -1916439.6    537.88303   -1915901.7    338.67048    4296.5016    123348.33 
     347     -1916438    532.68056   -1915905.4    335.39482    4486.1052    123348.33 
     348   -1916434.2    528.07371   -1915906.1    332.49418    4677.2331    123348.33 
     349   -1916426.6     525.4776   -1915901.2    330.85958    5107.0183    123348.33 
     350   -1916428.3    525.90037   -1915902.4    331.12577    5678.5546    123348.33 
     351   -1916431.1    529.46101   -1915901.7    333.36768    6123.9245    123348.33 
     352   -1916438.2    535.23098     -1915903    337.00066    6338.5815    123348.33 
     353   -1916444.8    541.55991   -1915903.2    340.98558    6660.3893    123348.33 
     354   -1916450.8    546.56032   -1915904.3    344.13402    7007.9829    123348.33 
     355   -1916451.7    548.67089     -1915903     345.4629    7247.4274    123348.33 
     356   -1916449.2    547.14232   -1915902.1    344.50046    7736.0781    123348.33 
     357     -1916445     542.1552   -1915902.8     341.3604    7976.1597    123348.33 
     358   -1916439.3    534.72408   -1915904.6    336.68149    8202.4081    123348.33 
     359   -1916431.8    526.42556   -1915905.4    331.45645    8485.3362    123348.33 
     360   -1916421.7    518.88245   -1915902.8    326.70703       8569.7    123348.33 
     361   -1916413.6    513.32029   -1915900.3     323.2049    8565.3029    123348.33 
     362   -1916415.5    510.36291   -1915905.1    321.34283    8268.2138    123348.33 
     363   -1916412.9    509.96806   -1915902.9    321.09421    7783.4755    123348.33 
     364   -1916415.1    511.51465   -1915903.6      322.068    7335.0164    123348.33 
     365   -1916420.9    514.00557   -1915906.9    323.63638    6864.7636    123348.33 
     366   -1916419.3    516.31251     -1915903    325.08891     6329.881    123348.33 
     367   -1916421.5    517.46187   -1915904.1    325.81258     5766.172    123348.33 
     368   -1916420.7    516.97729   -1915903.7    325.50747    5124.0986    123348.33 
     369   -1916417.2    514.97844   -1915902.2    324.24893    4565.7939    123348.33 
     370   -1916416.6    512.09088   -1915904.5    322.43082    4234.6356    123348.33 
     371   -1916410.8     509.0601   -1915901.7    320.52253    4008.7984    123348.33 
     372   -1916404.9    506.43366   -1915898.5    318.86883    3730.3478    123348.33 
     373   -1916409.7    504.60919   -1915905.1    317.72008    3548.4358    123348.33 
     374   -1916405.5    503.91443   -1915901.6    317.28263    3649.4794    123348.33 
     375   -1916408.3     504.7581   -1915903.5    317.81384    3558.0304    123348.33 
     376   -1916412.2    507.60393   -1915904.6    319.60568    3678.1574    123348.33 
     377   -1916417.1    512.71125   -1915904.4    322.82142     3871.692    123348.33 
     378   -1916422.8    519.68579   -1915903.1    327.21285    4288.4416    123348.33 
     379   -1916431.2    527.34819   -1915903.9    332.03737    4676.7132    123348.33 
     380   -1916438.5    534.21962   -1915904.2    336.36387    4995.3913    123348.33 
     381   -1916440.5    539.07404   -1915901.4    339.42038    5522.8745    123348.33 
     382   -1916444.3    541.36741   -1915902.9    340.86437    6210.6892    123348.33 
     383   -1916444.3    541.31396     -1915903    340.83072    6857.4121    123348.33 
     384   -1916441.5    539.43409   -1915902.1    339.64708    7491.9171    123348.33 
     385   -1916440.3    536.06299   -1915904.2    337.52452    8174.7562    123348.33 
     386   -1916433.8    531.34399   -1915902.5    334.55327    8586.4699    123348.33 
     387   -1916428.8    525.46204   -1915903.4    330.84978    8830.8449    123348.33 
     388     -1916419    518.89652   -1915900.1    326.71589    8981.0911    123348.33 
     389   -1916415.2    512.30557   -1915902.9    322.56599    8956.3594    123348.33 
     390   -1916412.6    506.36319   -1915906.2    318.82446    8676.4308    123348.33 
     391   -1916407.5    501.50745     -1915906    315.76711    8178.1078    123348.33 
     392   -1916402.2    497.81816   -1915904.4     313.4442     7668.713    123348.33 
     393   -1916398.5    495.35893   -1915903.1    311.89578    6836.6605    123348.33 
     394   -1916396.6    494.15976   -1915902.4    311.14074    6175.0654    123348.33 
     395   -1916395.2     494.2532     -1915901    311.19957    5376.7395    123348.33 
     396   -1916399.6    495.59754     -1915904    312.04602     4629.939    123348.33 
     397   -1916398.4    497.63968   -1915900.7    313.33182    3969.0435    123348.33 
     398   -1916400.4     499.3327   -1915901.1    314.39781    3522.9718    123348.33 
     399   -1916401.7    499.57995   -1915902.1    314.55349    3154.5229    123348.33 
     400   -1916400.5    497.75996   -1915902.8    313.40755    3322.9216    123348.33 
     401   -1916399.4    494.19017   -1915905.2    311.15989    3772.0353    123348.33 
     402   -1916395.5    490.00609   -1915905.5    308.52544    4133.3245    123348.33 
     403   -1916388.4     486.6271   -1915901.8    306.39791    4760.7005    123348.33 
     404   -1916387.4    485.34069   -1915902.1    305.58794    5684.7354    123348.33 
     405   -1916390.1    487.07439     -1915903    306.67953    6504.3775    123348.33 
     406   -1916391.8    492.17023   -1915899.6    309.88806    7403.0883    123348.33 
     407   -1916402.3     500.3246     -1915902    315.02234     8327.247    123348.33 
     408   -1916415.1    510.61345   -1915904.5    321.50058    9135.6072    123348.33 
     409   -1916422.3    521.40442   -1915900.9    328.29496    9749.8483    123348.33 
     410   -1916437.7    530.65702     -1915907    334.12072    10390.632    123348.33 
     411   -1916438.7    536.42841   -1915902.3     337.7546    10696.248    123348.33 
     412   -1916442.2    537.52169   -1915904.7    338.44297    10784.708    123348.33 
     413   -1916436.4    533.94836   -1915902.5    336.19307    10828.726    123348.33 
     414     -1916433    526.95591     -1915906    331.79037    10970.231    123348.33 
     415     -1916422    518.59227   -1915903.5    326.52432    10780.615    123348.33 
     416   -1916414.4    510.96093   -1915903.4    321.71936    10263.557    123348.33 
     417   -1916410.8    505.70311   -1915905.1    318.40885     9435.045    123348.33 
     418   -1916408.5    503.59642   -1915904.9     317.0824    8470.4236    123348.33 
     419     -1916407     504.6475   -1915902.3     317.7442    7129.9209    123348.33 
     420   -1916410.1    508.21774   -1915901.8    319.99215    5598.6899    123348.33 
     421   -1916416.9    513.28629   -1915903.6    323.18349    4067.5866    123348.33 
     422   -1916424.5    518.86194   -1915905.7    326.69412     2608.482    123348.33 
     423   -1916425.9     524.1172   -1915901.8    330.00302     1348.884    123348.33 
     424   -1916430.2    528.61302   -1915901.6    332.83375     262.9464    123348.33 
     425   -1916437.7     532.1958   -1915905.5     335.0896   -415.66007    123348.33 
     426   -1916439.3    534.72984   -1915904.6    336.68512       -827.9    123348.33 
     427   -1916439.9    535.88501     -1915904    337.41245   -942.06914    123348.33 
     428     -1916436    535.22284   -1915900.7    336.99553   -613.00354    123348.33 
     429   -1916435.8     532.6995   -1915903.1    335.40674    53.295162    123348.33 
     430   -1916429.6    529.05615   -1915900.6    333.11276    1019.8587    123348.33 
     431   -1916426.5    525.98242   -1915900.5    331.17743    2363.9012    123348.33 
     432   -1916426.4    525.68717   -1915900.7    330.99153     3847.235    123348.33 
     433   -1916432.8    529.86661   -1915902.9    333.62306    5425.2699    123348.33 
     434   -1916444.3    538.70481   -1915905.6    339.18791    6901.4068    123348.33 
     435   -1916451.2    550.53078   -1915900.7    346.63396    8153.9694    123348.33 
     436   -1916467.2    562.42123   -1915904.7    354.12061    9284.4909    123348.33 
     437   -1916476.4     571.3405     -1915905     359.7365    10175.821    123348.33 
     438   -1916478.3    575.35884     -1915903     362.2666    10989.515    123348.33 
     439   -1916478.4    574.40698     -1915904    361.66727    11349.477    123348.33 
     440   -1916471.3    570.06777   -1915901.2    358.93515     11433.15    123348.33 
     441   -1916464.4    564.65874   -1915899.7    355.52943    11173.709    123348.33 
     442   -1916462.7    560.28121   -1915902.4    352.77318    10855.123    123348.33 
     443   -1916460.5    558.04519   -1915902.5     351.3653    10195.193    123348.33 
     444   -1916458.7    557.83811   -1915900.8    351.23492    8871.9139    123348.33 
     445   -1916463.8    558.74212   -1915905.1    351.80411    7175.1004    123348.33 
     446   -1916467.5    559.43142   -1915908.1    352.23812    5558.3629    123348.33 
     447   -1916465.3    558.73079   -1915906.6    351.79698    4006.9781    123348.33 
     448   -1916458.9    556.07816   -1915902.8    350.12679    2401.8635    123348.33 
     449   -1916451.9    551.65941   -1915900.3    347.34459    1101.3551    123348.33 
     450   -1916447.2    546.25376   -1915900.9    343.94099   -195.50099    123348.33 
     451   -1916441.1    540.95096   -1915900.2    340.60216   -1171.5187    123348.33 
     452   -1916440.7    536.79596   -1915903.9    337.98602   -1706.6472    123348.33 
     453   -1916438.2    534.36606   -1915903.8    336.45607   -1929.7721    123348.33 
     454   -1916435.8    533.74291   -1915902.1    336.06372   -1994.1558    123348.33 
     455   -1916436.1    534.77246   -1915901.3    336.71196   -1504.3354    123348.33 
     456   -1916436.4    537.24602   -1915899.2     338.2694   -754.10308    123348.33 
     457   -1916442.4    540.88676   -1915901.5    340.56174    193.65371    123348.33 
     458     -1916448    545.31677   -1915902.7    343.35103     1431.125    123348.33 
     459   -1916454.9    550.09626   -1915904.8    346.36037    2780.2475    123348.33 
     460   -1916458.6    554.60248     -1915904    349.19765    4336.0847    123348.33 
     461     -1916461    557.99601     -1915903    351.33434    5754.4744    123348.33 
     462   -1916457.3    559.42014   -1915897.9    352.23102    7127.1501    123348.33 
     463   -1916463.7      558.356   -1915905.3      351.561    8589.3458    123348.33 
     464   -1916454.4    554.84288   -1915899.6    349.34901    9827.8146    123348.33 
     465     -1916457    549.70104   -1915907.3    346.11153     10690.94    123348.33 
     466   -1916446.3    544.50001   -1915901.8    342.83677    11305.493    123348.33 
     467   -1916443.6    540.98879   -1915902.6    340.62598     11516.43    123348.33 
     468   -1916443.5     540.5341     -1915903    340.33969    11356.749    123348.33 
     469   -1916445.3    543.49859   -1915901.8    342.20624    10569.328    123348.33 
     470   -1916449.4    548.97547   -1915900.4    345.65468    9432.8626    123348.33 
     471   -1916458.6     554.8325   -1915903.8    349.34248    8203.3503    123348.33 
     472   -1916464.6    558.36145   -1915906.2    351.56443    7038.3542    123348.33 
     473   -1916458.5    557.35114   -1915901.1    350.92831    5465.8337    123348.33 
     474   -1916454.2     550.7897   -1915903.5    346.79699     4058.941    123348.33 
     475     -1916443    539.34833   -1915903.6    339.59309    2752.8514    123348.33 
     476   -1916428.9    525.18296   -1915903.7    330.67406    1715.0235    123348.33 
     477   -1916414.9    511.25589   -1915903.7    321.90508    723.67493    123348.33 
     478   -1916403.7     500.3712   -1915903.3    315.05169   -182.20032    123348.33 
     479   -1916399.3    494.36002   -1915904.9    311.26683   -935.33321    123348.33 
     480   -1916396.8    493.70955   -1915903.1    310.85727   -1591.5162    123348.33 
     481   -1916397.9     497.5011   -1915900.4    313.24457   -1795.8457    123348.33 
     482   -1916404.8    503.96354   -1915900.8    317.31355   -1807.2466    123348.33 
     483   -1916418.5    511.16524   -1915907.3      321.848   -1466.4878    123348.33 
     484   -1916419.9    517.70384   -1915902.2    325.96494   -778.14822    123348.33 
     485   -1916428.6    522.98237   -1915905.6    329.28849    128.63451    123348.33 
     486   -1916430.4    526.99629   -1915903.4     331.8158    1087.6295    123348.33 
     487   -1916432.7    529.84291   -1915902.9    333.60813    2192.5696    123348.33 
     488   -1916435.6    531.35291   -1915904.3    334.55888    3631.1362    123348.33 
     489   -1916435.7    531.15184   -1915904.5    334.43228    5122.6801    123348.33 
     490   -1916433.7    528.99974   -1915904.7    333.07724     6519.796    123348.33 
     491   -1916426.8    525.20186   -1915901.6    330.68596     7860.823    123348.33 
     492   -1916426.1    520.68977   -1915905.4    327.84499     8841.753    123348.33 
     493   -1916422.2    516.76762   -1915905.4    325.37546     9574.519    123348.33 
     494   -1916420.5    514.69176   -1915905.8    324.06842    10084.949    123348.33 
     495   -1916418.2    515.24712     -1915903     324.4181    10306.526    123348.33 
     496   -1916423.9    518.40004   -1915905.5    326.40329    10154.969    123348.33 
     497   -1916423.5    523.19998   -1915900.3    329.42551    9694.2713    123348.33 
     498   -1916436.2    527.97724   -1915908.2    332.43344    8960.3866    123348.33 
     499   -1916434.7    530.78361   -1915903.9    334.20043    8031.4926    123348.33 
     500   -1916436.4    529.99405   -1915906.4     333.7033    7223.1468    123348.33 
     501   -1916428.3    525.09625   -1915903.2    330.61947    6574.5913    123348.33 
     502     -1916420    516.91579     -1915903    325.46875    5824.7633    123348.33 
     503   -1916410.5    507.30488   -1915903.2    319.41738    4921.9869    123348.33 
     504   -1916399.8    498.48243   -1915901.3    313.86245    4237.7751    123348.33 
     505     -1916394    492.12842   -1915901.9    309.86173    3564.5374    123348.33 
     506   -1916388.5    488.82955   -1915899.7    307.78465    2965.9392    123348.33 
     507     -1916390    488.09952   -1915901.9      307.325    2523.7917    123348.33 
     508   -1916387.9     488.9737   -1915898.9    307.87541    2273.5817    123348.33 
     509   -1916396.7    490.64248   -1915906.1    308.92613    1959.5905    123348.33 
     510   -1916397.8    492.71976     -1915905    310.23406    1962.3582    123348.33 
     511   -1916399.1    495.25283   -1915903.8    311.82898    2038.6681    123348.33 
     512   -1916403.7    498.54811   -1915905.2     313.9038     2175.314    123348.33 
     513   -1916407.4     502.7486   -1915904.6    316.54859    2335.0325    123348.33 
     514   -1916408.8    507.55275   -1915901.2    319.57345    2794.8578    123348.33 
     515     -1916415    512.35723   -1915902.6    322.59852    3192.9195    123348.33 
     516   -1916421.4    516.59824   -1915904.8    325.26881    3858.4552    123348.33 
     517   -1916423.2    519.98815   -1915903.2    327.40322    4429.1073    123348.33 
     518   -1916429.2    522.63619   -1915906.6    329.07052    5022.4875    123348.33 
     519   -1916429.1    524.80675   -1915904.3    330.43719    5525.1541    123348.33 
     520   -1916431.3     526.6657   -1915904.6    331.60765    5951.1976    123348.33 
     521   -1916432.4    528.20993   -1915904.2    332.57995    6435.3926    123348.33 
     522   -1916435.1    529.27464   -1915905.8    333.25033    6732.4868    123348.33 
     523   -1916432.5    529.75291   -1915902.7    333.55146    6887.8087    123348.33 
     524   -1916432.8    529.69391   -1915903.1    333.51432    6864.9142    123348.33 
     525   -1916438.4    529.34828   -1915909.1     333.2967    6751.4639    123348.33 
     526   -1916430.2    529.12386   -1915901.1    333.15539    6684.5218    123348.33 
     527   -1916432.9    529.35455   -1915903.6    333.30064    6632.7838    123348.33 
     528   -1916431.9    530.11777   -1915901.8    333.78119    6354.0743    123348.33 
     529   -1916432.8    531.16139   -1915901.6     334.4383    5935.6368    123348.33 
     530   -1916433.2    531.96082   -1915901.2    334.94165    5429.9774    123348.33 
     531   -1916435.5    531.96969   -1915903.5    334.94723    4860.9657    123348.33 
     532   -1916437.2    530.90262   -1915906.3    334.27537    4442.8907    123348.33 
     533   -1916432.8    528.92647   -1915903.9    333.03111    3932.1715    123348.33 
     534   -1916430.6    526.60544     -1915904    331.56971     3487.552    123348.33 
     535   -1916430.7    524.73184     -1915906    330.39002    3073.9708    123348.33 
     536   -1916429.1    524.09223     -1915905     329.9873    2815.7947    123348.33 
     537   -1916427.1    525.16142   -1915901.9     330.6605    2518.0292    123348.33 
     538   -1916428.4    528.01008   -1915900.4    332.45412    2262.7471    123348.33 
     539   -1916433.7    532.26728   -1915901.4     335.1346    2110.2843    123348.33 
     540   -1916438.2    537.18983     -1915901    338.23402    1993.2778    123348.33 
     541   -1916447.3    542.06924   -1915905.3    341.30627    1838.4364    123348.33 
     542   -1916449.5    546.43786   -1915903.1    344.05691     1763.963    123348.33 
     543   -1916452.5    550.12603   -1915902.4    346.37911    1763.1322    123348.33 
     544   -1916456.9     553.1999   -1915903.7    348.31453    1996.4507    123348.33 
     545   -1916458.5    555.69168   -1915902.8    349.88345    2094.7022    123348.33 
     546   -1916458.5    557.48068     -1915901    351.00987    2456.2561    123348.33 
     547   -1916459.5    558.27096   -1915901.3    351.50746    2677.7101    123348.33 
     548   -1916458.6    557.75485   -1915900.8    351.18249    3010.1671    123348.33 
     549   -1916458.8    555.90601   -1915902.9     350.0184    3350.8158    123348.33 
     550   -1916453.5    553.14855   -1915900.4     348.2822    3608.6769    123348.33 
     551   -1916451.9    550.33325   -1915901.6    346.50959    3730.6092    123348.33 
     552   -1916450.9    548.38063   -1915902.5    345.28015     3842.241    123348.33 
     553   -1916450.4    547.83683   -1915902.6    344.93775    4064.6087    123348.33 
     554   -1916451.5    548.44779   -1915903.1    345.32244     4155.309    123348.33 
     555   -1916453.3    549.17144   -1915904.1    345.77807    4076.9686    123348.33 
     556   -1916452.6    548.63897     -1915904    345.44281    4042.8676    123348.33 
     557   -1916445.3    545.73779   -1915899.6    343.61612    4074.3801    123348.33 
     558   -1916442.8     540.0911   -1915902.7    340.06076    4116.5917    123348.33 
     559   -1916435.4    532.25778   -1915903.1    335.12862    4018.4231    123348.33 
     560   -1916430.6    523.59177     -1915907    329.67219    4175.3203    123348.33 
     561   -1916418.7    515.66406     -1915903    324.68062    4443.3701    123348.33 
     562   -1916412.9    509.81552   -1915903.1    320.99817    4645.6314    123348.33 
     563   -1916408.9    506.69694   -1915902.2     319.0346    4601.9646    123348.33 
     564   -1916411.6    506.02371   -1915905.5    318.61071     4525.969    123348.33 
     565   -1916409.1    506.90651   -1915902.2    319.16655    4444.0897    123348.33 
     566   -1916410.6    508.33254   -1915902.2    320.06443    4386.4027    123348.33 
     567   -1916411.5    509.54196   -1915901.9    320.82593    4211.7864    123348.33 
     568   -1916412.8    510.16794   -1915902.6    321.22007    4128.6179    123348.33 
     569   -1916410.8    510.29688   -1915900.5    321.30125    3979.3263    123348.33 
     570   -1916413.8    510.21222   -1915903.6    321.24795    3881.6261    123348.33 
     571   -1916414.5    510.05469   -1915904.4    321.14876    3820.5053    123348.33 
     572   -1916414.1    509.84628   -1915904.2    321.01753    3763.6948    123348.33 
     573   -1916410.4    509.63436   -1915900.8     320.8841    3601.9056    123348.33 
     574   -1916410.9    509.48566   -1915901.5    320.79048     3581.867    123348.33 
     575   -1916411.5    509.35956   -1915902.1    320.71108    3461.3962    123348.33 
     576   -1916410.8     509.1348   -1915901.7    320.56957    3355.0956    123348.33 
     577   -1916410.5    508.65589   -1915901.9    320.26802    3363.5783    123348.33 
     578   -1916410.3    507.87911   -1915902.4    319.77894    3402.2482    123348.33 
     579   -1916409.8    507.01087   -1915902.8    319.23226    3454.4673    123348.33 
     580   -1916413.7    506.45962   -1915907.2    318.88518    3386.5112    123348.33 
     581   -1916409.1    506.51134   -1915902.6    318.91774    3474.4898    123348.33 
     582   -1916410.4    506.89684   -1915903.5    319.16046    3692.6359    123348.33 
     583   -1916409.8     506.9057   -1915902.9    319.16604    3850.8018    123348.33 
     584   -1916408.8    505.81778     -1915903    318.48105    3936.8405    123348.33 
     585   -1916406.2      503.385   -1915902.8    316.94928    4181.1644    123348.33 
     586   -1916403.5    500.02482   -1915903.5     314.8336    4557.0442    123348.33 
     587   -1916399.2    496.72117   -1915902.5    312.75349    4858.8837    123348.33 
     588   -1916401.4    494.62232   -1915906.8    311.43198     5202.756    123348.33 
     589   -1916397.4    494.46271   -1915902.9    311.33149    5670.1213    123348.33 
     590   -1916396.8    496.25654   -1915900.5    312.46095    5971.4264    123348.33 
     591   -1916397.5    499.42755   -1915898.1    314.45753     6091.308    123348.33 
     592   -1916411.5    503.16582   -1915908.3    316.81128    6351.4254    123348.33 
     593   -1916407.4    506.70158   -1915900.7    319.03752    6698.9077    123348.33 
     594   -1916414.9    509.47926   -1915905.4    320.78645    6825.6874    123348.33 
     595   -1916413.1    511.25134   -1915901.9    321.90221    6756.8655    123348.33 
     596   -1916415.6    512.05714   -1915903.5    322.40958    6486.7584    123348.33 
     597   -1916415.8    512.25558   -1915903.5    322.53452    6402.1524    123348.33 
     598   -1916419.1    512.43661   -1915906.7     322.6485    6118.0638    123348.33 
     599   -1916414.2    513.12845   -1915901.1    323.08411     5820.524    123348.33 
     600   -1916417.2    514.45082   -1915902.7    323.91672    5306.1345    123348.33 
     601   -1916420.8    515.95476   -1915904.9    324.86366    4966.1936    123348.33 
     602   -1916420.4    516.87873   -1915903.5    325.44542    4250.5835    123348.33 
     603   -1916417.3    516.62346   -1915900.7    325.28469    3557.6866    123348.33 
     604   -1916414.3    515.07293   -1915899.2    324.30842    2921.1453    123348.33 
     605   -1916415.1    512.54246   -1915902.6    322.71515    2243.1793    123348.33 
     606   -1916411.2    509.56208   -1915901.6     320.8386    1649.8972    123348.33 
     607   -1916406.7     506.5292   -1915900.1    318.92899    1296.5927    123348.33 
     608   -1916406.8    503.57317   -1915903.2    317.06776    1029.5996    123348.33 
     609   -1916404.3    500.70544   -1915903.6    315.26214    747.15625    123348.33 
     610   -1916402.6    498.06205   -1915904.5    313.59776    739.45922    123348.33 
     611   -1916396.3    496.01268   -1915900.3    312.30741    1007.3423    123348.33 
     612   -1916396.3    494.98387   -1915901.3    311.65963    1646.8039    123348.33 
     613   -1916400.9     495.2017   -1915905.7    311.79679     2270.232    123348.33 
     614   -1916396.8    496.43937   -1915900.3    312.57606    3114.3243    123348.33 
     615   -1916403.7    497.89323   -1915905.8    313.49146    4034.6919    123348.33 
     616     -1916402    498.56483   -1915903.4    313.91433    5256.0664    123348.33 
     617   -1916399.8    497.67791   -1915902.2    313.35589    6374.1607    123348.33 
     618   -1916394.7    495.13005   -1915899.6    311.75167    7523.2054    123348.33 
     619   -1916392.5     491.5363   -1915900.9    309.48891    8705.0943    123348.33 
     620   -1916390.2    487.85404   -1915902.3    307.17043    9727.8121    123348.33 
     621   -1916385.2    485.14117     -1915900    305.46231    10366.297    123348.33 
     622   -1916388.2    484.30703   -1915903.9    304.93711    10645.379    123348.33 
     623   -1916390.9     485.8035   -1915905.1    305.87934    10552.997    123348.33 
     624   -1916387.5    489.37682   -1915898.2    308.12923    10139.537    123348.33 
     625   -1916399.1    494.06686   -1915905.1    311.08225    9342.2097    123348.33 
     626   -1916405.8    498.40726   -1915907.4    313.81512    8386.3868    123348.33 
     627   -1916405.7     501.0251   -1915904.6    315.46341      7104.85    123348.33 
     628   -1916405.1    501.29007   -1915903.8    315.63024    5714.6646    123348.33 
     629     -1916405    499.58378   -1915905.4     314.5559    4152.4481    123348.33 
     630   -1916400.2    497.01577   -1915903.2    312.93898    2770.2394    123348.33 
     631   -1916399.6    494.62442     -1915905    311.43331    1382.0393    123348.33 
     632   -1916394.7    492.84669   -1915901.8    310.31398     202.2211    123348.33 
     633   -1916394.7    491.54866   -1915903.1     309.4967     -780.874    123348.33 
     634   -1916392.4    490.37294   -1915902.1    308.75642   -1259.9167    123348.33 
     635   -1916390.4    489.23426   -1915901.2    308.03947   -1615.6355    123348.33 
     636   -1916391.1     488.4698   -1915902.6    307.55814   -1664.5428    123348.33 
     637   -1916388.7    488.69262     -1915900    307.69843   -1199.9387    123348.33 
     638   -1916392.2    490.39634   -1915901.8    308.77116   -392.26602    123348.33 
     639   -1916398.7    493.66955     -1915905    310.83208    759.92782    123348.33 
     640   -1916404.3    498.12264   -1915906.2    313.63591    2064.7801    123348.33 
     641   -1916405.4    503.04795   -1915902.3    316.73706    3368.5042    123348.33 
     642   -1916410.3    507.80453   -1915902.5    319.73198    4940.7066    123348.33 
     643   -1916416.5    512.01977   -1915904.5    322.38604    6302.7207    123348.33 
     644   -1916417.4    515.57285   -1915901.8    324.62319    7723.2361    123348.33 
     645   -1916422.4     518.3944     -1915904    326.39974    9093.6431    123348.33 
     646   -1916422.9    520.43066   -1915902.4    327.68184    10094.871    123348.33 
     647   -1916424.7    521.76936   -1915902.9    328.52473    10966.618    123348.33 
     648   -1916424.9    522.76116   -1915902.2    329.14921    11257.189    123348.33 
     649   -1916425.8    523.89725   -1915901.9    329.86453    11372.597    123348.33 
     650     -1916423    525.41414   -1915897.6    330.81962    10963.675    123348.33 
     651     -1916431    527.08214   -1915903.9    331.86985    10131.135    123348.33 
     652   -1916431.8    528.31669   -1915903.5    332.64717    8804.7566    123348.33 
     653     -1916427    528.58171   -1915898.4    332.81404    7276.2321    123348.33 
     654   -1916433.1    527.89279   -1915905.2    332.38027     5379.746    123348.33 
     655   -1916430.6     526.8097   -1915903.8    331.69831    3389.1302    123348.33 
     656   -1916425.3    525.97604   -1915899.4    331.17342    1524.7409    123348.33 
     657   -1916430.9    525.70621   -1915905.2    331.00352   -301.50103    123348.33 
     658   -1916427.8    525.76386     -1915902    331.03982   -1816.2631    123348.33 
     659   -1916428.4    525.46456     -1915903    330.85137   -3045.0277    123348.33 
     660   -1916427.6     524.1735   -1915903.5    330.03847   -3718.8353    123348.33 
     661   -1916422.2    521.65534   -1915900.5    328.45294   -4113.6375    123348.33 
     662   -1916417.8     518.2597   -1915899.6    326.31493   -3952.7009    123348.33 
     663   -1916417.6    514.74364   -1915902.8    324.10109   -3300.2127    123348.33 
     664   -1916412.8    511.71471     -1915901    322.19397   -2253.9681    123348.33 
     665   -1916409.5    509.44783     -1915900    320.76666   -894.98928    123348.33 
     666   -1916410.7    507.83925   -1915902.9    319.75384    753.54005    123348.33 
     667   -1916410.9    506.63519   -1915904.3    318.99572    2491.6699    123348.33 
     668   -1916407.2    505.67365   -1915901.6     318.3903    4439.7628    123348.33 
     669   -1916409.6    504.92793   -1915904.7    317.92076    6305.5669    123348.33 
     670   -1916405.7    504.41519   -1915901.3    317.59793    8071.0371    123348.33 
     671   -1916408.5    504.10732   -1915904.4    317.40408    9851.6178    123348.33 
     672   -1916408.5    503.99691   -1915904.5    317.33456    11046.581    123348.33 
     673   -1916402.9    504.16729   -1915898.7    317.44184    11712.632    123348.33 
     674   -1916406.8     504.7475     -1915902    317.80716    11873.716    123348.33 
     675   -1916407.5     505.6409   -1915901.8    318.36968    11596.898    123348.33 
     676   -1916409.1     506.3883   -1915902.7    318.84027    10953.985    123348.33 
     677   -1916408.5    506.31298   -1915902.2    318.79284    9803.9261    123348.33 
     678     -1916407    504.95284     -1915902    317.93645    8548.0649    123348.33 
     679   -1916403.6    502.50087   -1915901.1    316.39261    6837.6575    123348.33 
     680   -1916401.1    499.82108   -1915901.3    314.70531    4865.7437    123348.33 
     681   -1916404.2    498.04168   -1915906.1    313.58494    2889.1117    123348.33 
     682   -1916400.3     497.9643   -1915902.3    313.53621    1027.7238    123348.33 
     683   -1916408.7    499.62934     -1915909    314.58458   -849.18633    123348.33 
     684   -1916407.4    502.30539   -1915905.1    316.26952   -2257.2578    123348.33 
     685   -1916406.6     504.9285   -1915901.7    317.92113   -3285.1165    123348.33 
     686   -1916404.6    506.68353   -1915897.9    319.02616   -3808.3951    123348.33 
     687   -1916407.5    507.41066   -1915900.1    319.48398   -3869.0057    123348.33 
     688   -1916408.1    507.68842   -1915900.4    319.65887   -3709.9012    123348.33 
     689   -1916410.8    508.51558   -1915902.3    320.17968     -3031.83    123348.33 
     690   -1916412.6     510.6688     -1915902    321.53542   -1808.1725    123348.33 
     691   -1916415.1    514.25305   -1915900.9     323.7922   -290.48049    123348.33 
     692   -1916422.8    518.68737   -1915904.1    326.58421    1263.0102    123348.33 
     693   -1916424.2    522.96289   -1915901.3    329.27623     3236.334    123348.33 
     694   -1916426.1     526.0632     -1915900    331.22829    5200.4141    123348.33 
     695   -1916428.8    527.34437   -1915901.5    332.03496    6931.5461    123348.33 
     696   -1916429.2    526.85244   -1915902.4    331.72523     8514.823    123348.33 
     697   -1916430.1    525.36304   -1915904.7    330.78744     9866.326    123348.33 
     698   -1916422.5    524.07082   -1915898.4    329.97382    10958.461    123348.33 
     699   -1916427.2    524.13196     -1915903    330.01231    11550.061    123348.33 
     700   -1916429.7    526.09542   -1915903.6    331.24858    11749.876    123348.33 
     701   -1916431.4     529.5439   -1915901.8    333.41986    11619.032    123348.33 
     702   -1916435.8    533.19998   -1915902.6    335.72187    10782.523    123348.33 
     703   -1916440.6    535.49057   -1915905.2    337.16411    9659.9683    123348.33 
     704   -1916436.3    535.45295   -1915900.8    337.14042    8156.6573    123348.33 
     705   -1916434.3    533.17816   -1915901.1    335.70813    6630.4581    123348.33 
     706   -1916433.2    529.52975   -1915903.7    333.41095    5045.3296    123348.33 
     707   -1916428.5    525.57654   -1915902.9    330.92187    3541.0793    123348.33 
     708   -1916426.4    522.05262   -1915904.4    328.70308    1970.2858    123348.33 
     709   -1916421.7    519.16076   -1915902.5    326.88226     785.2668    123348.33 
     710   -1916421.7    516.60667   -1915905.1    325.27412   -473.63816    123348.33 
     711   -1916414.4    513.92952   -1915900.5    323.58849   -1472.0421    123348.33 
     712   -1916417.4     510.9689   -1915906.5    321.72438   -1921.3344    123348.33 
     713   -1916408.5    508.01486   -1915900.5    319.86441   -2085.3773    123348.33 
     714   -1916409.8    505.88429   -1915903.9    318.52293   -1839.0002    123348.33 
     715   -1916411.4    505.70981   -1915905.6    318.41307   -1072.5542    123348.33 
     716   -1916410.8    508.22201   -1915902.5    319.99484   -201.63315    123348.33 
     717     -1916416    513.10321   -1915902.9    323.06822     932.1277    123348.33 
     718   -1916420.8    518.76388     -1915902    326.63238    2218.6229    123348.33 
     719   -1916428.7    522.74206   -1915905.9    329.13718    3753.0485    123348.33 
     720   -1916426.9    522.96161   -1915903.9    329.27542    5392.3146    123348.33 
     721     -1916421    518.61788   -1915902.4    326.54045    7009.7191    123348.33 
     722   -1916417.5    510.37736   -1915907.2    321.35192    8610.4931    123348.33 
     723   -1916403.8    500.15972   -1915903.7    314.91853    9792.1025    123348.33 
     724   -1916398.8    490.41206   -1915908.4    308.78105    10799.239    123348.33 
     725   -1916385.8      483.349   -1915902.5     304.3339    11690.994    123348.33 
     726   -1916380.5    480.05158   -1915900.5    302.25772    11908.889    123348.33 
     727   -1916385.6    480.28021   -1915905.3    302.40168    11637.707    123348.33 
     728   -1916384.3    482.83682   -1915901.5    304.01141    10966.926    123348.33 
     729   -1916386.6     486.0838   -1915900.5    306.05583    9903.8489    123348.33 
     730   -1916391.4    488.74838   -1915902.7    307.73354    8683.6218    123348.33 
     731   -1916389.9    490.18581   -1915899.7     308.6386    7144.8143    123348.33 
     732   -1916395.2    490.26473     -1915905    308.68829    5601.1625    123348.33 
     733   -1916390.5    489.05807   -1915901.5    307.92853    4196.9039    123348.33 
     734   -1916385.3    486.52297   -1915898.8    306.33235     3005.648    123348.33 
     735   -1916381.8    482.59422   -1915899.2    303.85866    1924.9829    123348.33 
     736   -1916379.9    477.33379   -1915902.5     300.5465    1098.4229    123348.33 
     737   -1916374.8    471.12246   -1915903.6    296.63563    549.69168    123348.33 
     738   -1916370.1    464.84899   -1915905.2    292.68562    265.34995    123348.33 
     739   -1916359.8    459.86699   -1915899.9    289.54878    387.57305    123348.33 
     740     -1916360    457.67733   -1915902.4    288.17009    722.37546    123348.33 
     741   -1916361.2    459.43282   -1915901.8    289.27541    1011.5975    123348.33 
     742   -1916367.7    465.39871   -1915902.3    293.03175    1521.2622    123348.33 
     743   -1916377.8    474.43452   -1915903.3    298.72102    2197.8664    123348.33 
     744   -1916385.2    484.09382   -1915901.1    304.80286    3173.4998    123348.33 
     745   -1916393.3    491.57926   -1915901.7    309.51596    4331.5578    123348.33 
     746   -1916396.5    494.99084   -1915901.6    311.66402    5230.6025    123348.33 
     747   -1916400.3    494.02343   -1915906.3     311.0549    6416.5147    123348.33 
     748   -1916392.4    489.83402   -1915902.6     308.4171    7614.9319    123348.33 
     749   -1916383.2    484.34422   -1915898.8    304.96053     8719.923    123348.33 
     750   -1916379.1    479.46766   -1915899.6    301.89007    9611.6456    123348.33 
     751     -1916379    476.37945   -1915902.6    299.94562    10130.033    123348.33 
     752   -1916378.3    475.27126     -1915903    299.24786    10485.559    123348.33 
     753     -1916379    475.69324   -1915903.3    299.51355    10781.433    123348.33 
     754   -1916380.9    476.89185     -1915904    300.26825    10808.894    123348.33 
     755     -1916380    478.12993   -1915901.8    301.04778    10406.211    123348.33 
     756     -1916381    478.94541   -1915902.1    301.56124     9938.877    123348.33 
     757   -1916380.7    479.09999   -1915901.6    301.65857    9128.4157    123348.33 
     758   -1916380.7    478.43422   -1915902.2    301.23937    8209.5397    123348.33 
     759   -1916380.8    476.89921   -1915903.9    300.27288    7378.3143    123348.33 
     760   -1916377.1    474.60625   -1915902.5    298.82915    6280.8646    123348.33 
     761   -1916374.6    471.88549   -1915902.8    297.11606    5347.0905    123348.33 
     762   -1916370.5    469.36567   -1915901.1    295.52949    4511.6176    123348.33 
     763   -1916366.6    467.83363   -1915898.8    294.56487    3745.1058    123348.33 
     764   -1916368.7    467.79945   -1915900.9    294.54334    3248.3144    123348.33 
     765   -1916370.2    469.47582   -1915900.7    295.59885    2733.9414    123348.33 
     766     -1916374    472.70674   -1915901.3    297.63314    2449.8639    123348.33 
     767   -1916380.2    476.95012   -1915903.2    300.30493    2636.7557    123348.33 
     768   -1916383.9    481.73014   -1915902.2     303.3146    2808.5436    123348.33 
     769   -1916388.8    486.76478   -1915902.1     306.4846    2971.9531    123348.33 
     770     -1916393    491.71006   -1915901.3    309.59832    3387.8354    123348.33 
     771   -1916396.2    495.92296   -1915900.3    312.25092    3898.0957    123348.33 
     772   -1916401.4    498.69733   -1915902.7    313.99775    4444.7853    123348.33 
     773   -1916406.4    499.78037   -1915906.6    314.67968    5307.5613    123348.33 
     774   -1916400.8    499.62063   -1915901.2     314.5791    6090.3832    123348.33 
     775   -1916401.9    499.17194   -1915902.7    314.29659    6515.8885    123348.33 
     776   -1916402.4    499.31233   -1915903.1    314.38499    7025.0369    123348.33 
     777   -1916403.6    500.27328   -1915903.3    314.99003    7455.1528    123348.33 
     778   -1916406.4    501.61476   -1915904.8    315.83468    7698.6181    123348.33 
     779   -1916404.9    502.63908   -1915902.3    316.47962    7837.3812    123348.33 
     780   -1916407.5    502.85005   -1915904.7    316.61246    7712.7549    123348.33 
     781   -1916404.2    502.12065   -1915902.1     316.1532     7653.745    123348.33 
     782   -1916402.5    500.53911   -1915901.9    315.15741    7299.8587    123348.33 
     783   -1916400.8    498.30131   -1915902.5    313.74841    6774.6579    123348.33 
     784   -1916397.4    495.55596   -1915901.8    312.01984    6129.0284    123348.33 
     785   -1916395.2    492.41753   -1915902.8    310.04377    5607.0447    123348.33 
     786   -1916391.4    489.13698   -1915902.2    307.97822    4894.8268    123348.33 
     787     -1916386    486.20984   -1915899.8    306.13519    4117.7721    123348.33 
     788     -1916386      484.384   -1915901.6    304.98557    3505.8891    123348.33 
     789   -1916386.5    484.28448   -1915902.2    304.92291    2854.1979    123348.33 
     790   -1916385.8    485.94852   -1915899.8    305.97065    2155.0679    123348.33 
     791   -1916388.1    488.82581   -1915899.3    307.78229    1610.2912    123348.33 
     792   -1916394.5    491.98265   -1915902.5    309.76995    1238.9961    123348.33 
     793     -1916394    494.41714   -1915899.6    311.30279    940.48254    123348.33 
     794     -1916399    495.60254   -1915903.4    312.04917     916.4666    123348.33 
     795   -1916397.2    495.60042   -1915901.6    312.04783    980.83097    123348.33 
     796   -1916394.9    494.90585     -1915900    311.61051    1156.5249    123348.33 
     797   -1916394.6    494.22947   -1915900.3    311.18463    1706.8254    123348.33 
     798     -1916397    494.14402   -1915902.8    311.13083    2215.7931    123348.33 
     799   -1916398.8    495.11066   -1915903.7    311.73946    2655.0333    123348.33 
     800   -1916397.2    497.72531   -1915899.4    313.38574    3116.7939    123348.33 
     801   -1916404.9    502.44958   -1915902.5    316.36031    3675.5063    123348.33 
     802     -1916411    509.00479   -1915901.9     320.4877    4391.4344    123348.33 
     803   -1916416.1    516.13758   -1915899.9    324.97876    5046.7696    123348.33 
     804   -1916424.9     521.9367     -1915903     328.6301    5545.3994    123348.33 
     805   -1916426.8    524.54892   -1915902.2    330.27485    6048.1838    123348.33 
     806     -1916423    523.02194   -1915899.9    329.31341    6594.7318    123348.33 
     807   -1916421.7    517.82818   -1915903.9    326.04323    7050.5362    123348.33 
     808     -1916413    510.47721   -1915902.5    321.41479    7261.0931    123348.33 
     809   -1916401.9     502.8773     -1915899    316.62962    7358.8584    123348.33 
     810   -1916400.7    496.73456   -1915903.9    312.76193    7322.7354    123348.33 
     811   -1916393.2    493.00726   -1915900.1    310.41508    6985.3377    123348.33 
     812   -1916396.8    491.92655   -1915904.9    309.73463    6324.4575    123348.33 
     813   -1916394.7    493.26035   -1915901.4    310.57444    5405.8536    123348.33 
     814   -1916395.3    496.57902   -1915898.7    312.66399    4454.1465    123348.33 
     815   -1916399.6    501.28077   -1915898.3    315.62438    3356.1172    123348.33 
     816   -1916408.2     506.6442   -1915901.6    319.00139    2457.5546    123348.33 
     817   -1916413.5    511.87403   -1915901.7    322.29428    1592.6961    123348.33 
     818   -1916418.5    515.89401   -1915902.6     324.8254    855.15505    123348.33 
     819   -1916422.1    517.58029   -1915904.6    325.88715    425.33199    123348.33 
     820   -1916419.8    516.13042   -1915903.6    324.97426    119.64351    123348.33 
     821   -1916412.6    511.55689     -1915901     322.0946    136.99292    123348.33 
     822   -1916410.4    505.07402   -1915905.4    318.01275    297.00365    123348.33 
     823   -1916400.2    498.87531   -1915901.3    314.10982    754.60594    123348.33 
     824   -1916396.9    495.46053   -1915901.4    311.95975    1070.6807    123348.33 
     825   -1916399.9    496.61161   -1915903.3    312.68451    1548.9235    123348.33 
     826   -1916406.7    502.96144   -1915903.8    316.68259    2038.9577    123348.33 
     827   -1916412.6    514.03727   -1915898.6    323.65634    2520.2464    123348.33 
     828   -1916431.5    528.19726   -1915903.3    332.57197    2784.3116    123348.33 
     829   -1916444.3    542.80757   -1915901.5    341.77115    3097.0402    123348.33 
     830   -1916458.8    554.73424   -1915904.1    349.28061      3476.74    123348.33 
     831   -1916460.1    561.15048     -1915899    353.32051    4031.3102    123348.33 
     832   -1916458.9    560.48365   -1915898.4    352.90065      4381.55    123348.33 
     833     -1916455    553.01039     -1915902    348.19521    4892.5179    123348.33 
     834   -1916438.8    540.76777     -1915898    340.48681    5352.5903    123348.33 
     835     -1916427    526.76742   -1915900.2     331.6717    5679.3417    123348.33 
     836     -1916416     514.0254     -1915902    323.64886    5819.0702    123348.33 
     837   -1916406.5    504.75029   -1915901.7    317.80892    5734.8612    123348.33 
     838   -1916401.7    499.86568   -1915901.8     314.7334    5126.0132    123348.33 
     839     -1916398    499.17931   -1915898.8    314.30123    4327.5941    123348.33 
     840     -1916404    501.90516   -1915902.1    316.01752    3481.0045    123348.33 
     841   -1916406.2    506.98983   -1915899.2    319.21901    2551.1433    123348.33 
     842   -1916413.1    513.25566   -1915899.8    323.16421    1694.6957    123348.33 
     843   -1916420.2    519.33987   -1915900.9    326.99504    974.30353    123348.33 
     844   -1916423.8    523.68287   -1915900.1    329.72955    487.50724    123348.33 
     845   -1916424.7    524.69056     -1915900    330.36403    66.345818    123348.33 
     846   -1916418.1    521.17479     -1915897    328.15037   -40.321304    123348.33 
     847   -1916411.9    512.89846     -1915899     322.9393    246.35878    123348.33 
     848   -1916403.1    500.96175   -1915902.1    315.42352    724.12054    123348.33 
     849   -1916389.1    487.98311   -1915901.1     307.2517    1382.6401    123348.33 
     850     -1916377    477.47401   -1915899.5    300.63479    2008.0788    123348.33 
     851     -1916375    472.72095   -1915902.2    297.64209    2671.6309    123348.33 
     852   -1916378.9    475.39825   -1915903.5    299.32782     3138.547    123348.33 
     853   -1916385.8    484.70166   -1915901.1    305.18558    3513.3402    123348.33 
     854   -1916399.6     497.7985   -1915901.8    313.43182    3811.1951    123348.33 
     855   -1916411.6    510.96434   -1915900.6    321.72151     3994.396    123348.33 
     856   -1916424.9    520.71438   -1915904.1    327.86048    4163.4759    123348.33 
     857   -1916425.9    524.51194   -1915901.4    330.25156    4478.1734    123348.33 
     858   -1916423.4    521.23398   -1915902.2    328.18764    4720.6856    123348.33 
     859   -1916414.7    511.31047   -1915903.3    321.93944    4999.0076    123348.33 
     860   -1916394.9    496.48991   -1915898.4    312.60788    5309.8212    123348.33 
     861   -1916378.5    479.55005     -1915899    301.94194    5743.0752    123348.33 
     862   -1916362.7    463.51806   -1915899.2    291.84762    5857.4374    123348.33 
     863   -1916349.4    450.94217   -1915898.5    283.92939    5764.2992    123348.33 
     864   -1916344.6    443.45144   -1915901.1    279.21296    5482.0626    123348.33 
     865   -1916343.6    441.47491   -1915902.1    277.96847    4990.0728    123348.33 
     866     -1916344    444.42834   -1915899.6    279.82805    4497.0411    123348.33 
     867   -1916349.5    451.09288   -1915898.5    284.02429    4017.6123    123348.33 
     868     -1916362    459.90872     -1915902    289.57506    3443.9234    123348.33 
     869   -1916373.1    469.15574     -1915904    295.39731    2870.2123    123348.33 
     870   -1916376.9    477.20664   -1915899.7    300.46645    2515.8617    123348.33 
     871   -1916383.9    482.60564   -1915901.3    303.86585    2373.2002    123348.33 
     872   -1916385.3    484.39629   -1915900.9    304.99331    2503.1075    123348.33 
     873   -1916382.8    482.44806   -1915900.4    303.76663    2932.7829    123348.33 
     874   -1916376.9    477.53545   -1915899.3    300.67348     3527.154    123348.33 
     875     -1916374    471.44731   -1915902.5    296.84017    4221.7552    123348.33 
     876   -1916368.2     466.7055   -1915901.5    293.85455    4883.1632    123348.33 
     877   -1916363.5    465.94324   -1915897.5     293.3746    5270.6074    123348.33 
     878   -1916367.4    471.01663   -1915896.4      296.569    5365.0428    123348.33 
     879     -1916381    481.96634     -1915899    303.46333    5330.1669    123348.33 
     880   -1916397.1      496.724   -1915900.4    312.75528    5174.0789    123348.33 
     881   -1916413.2    511.94982   -1915901.3      322.342    4814.9149    123348.33 
     882   -1916426.2    524.15688     -1915902    330.02801    4368.0591    123348.33 
     883   -1916432.8    530.83847     -1915902    334.23497    3884.3891    123348.33 
     884   -1916430.6    531.06944   -1915899.6     334.3804    3424.1087    123348.33 
     885   -1916428.8    525.58521   -1915903.3    330.92733    2938.8939    123348.33 
     886   -1916415.9    516.56867   -1915899.3    325.25019    2716.0242    123348.33 
     887   -1916407.2     506.9385   -1915900.2    319.18669    2513.8262    123348.33 
     888   -1916401.6    499.38926   -1915902.2    314.43342    2055.7277    123348.33 
     889   -1916397.6    495.50698   -1915902.1      311.989    1533.7123    123348.33 
     890   -1916393.5    495.41492   -1915898.1    311.93104    1150.8721    123348.33 
     891   -1916396.6    498.07177   -1915898.5    313.60388    787.98795    123348.33 
     892   -1916401.9    501.93434     -1915900     316.0359    583.72213    123348.33 
     893   -1916409.1    505.61225   -1915903.5    318.35164    664.52307    123348.33 
     894   -1916411.7    508.19703   -1915903.5    319.97911    817.83977    123348.33 
     895   -1916409.9    509.36948   -1915900.6    320.71733    1114.8472    123348.33 
     896   -1916407.7    509.29166   -1915898.4    320.66833    1863.4893    123348.33 
     897   -1916411.4     508.2534   -1915903.2     320.0146    2706.9285    123348.33 
     898   -1916402.5    506.63719   -1915895.8    318.99698    3354.5426    123348.33 
     899   -1916404.2    504.87548   -1915899.4    317.88774    4134.7503    123348.33 
     900   -1916403.3    503.28639   -1915900.1     316.8872    4668.3938    123348.33 
     901   -1916401.2    502.21165     -1915899     316.2105    5298.4026    123348.33 
     902   -1916402.6    502.06133   -1915900.5    316.11585    5937.9872    123348.33 
     903   -1916402.5    503.48295     -1915899    317.01096    6259.2132    123348.33 
     904     -1916406    507.39689   -1915898.6    319.47532     6352.308    123348.33 
     905   -1916417.3    514.26052   -1915903.1     323.7969    6341.2359    123348.33 
     906   -1916420.5    523.27231   -1915897.2    329.47105    5929.0745    123348.33 
     907   -1916427.8    532.14966   -1915895.6    335.06055    5361.9855    123348.33 
     908   -1916437.6    537.89368   -1915899.7    338.67719    4588.1639    123348.33 
     909   -1916437.3    538.23729   -1915899.1    338.89354    3922.0127    123348.33 
     910   -1916434.5    532.64192   -1915901.8    335.37049    3082.9569    123348.33 
     911   -1916423.5    522.31439   -1915901.2     328.8679    2396.8073    123348.33 
     912   -1916409.9    509.80212   -1915900.1    320.98973    1899.2357    123348.33 
     913   -1916396.4    497.95425   -1915898.5    313.52989    1320.2287    123348.33 
     914   -1916389.9    488.95118   -1915900.9    307.86123    770.82975    123348.33 
     915   -1916379.9     483.9434   -1915895.9    304.70815    270.76449    123348.33 
     916     -1916382     482.9778     -1915899    304.10018   -72.448243    123348.33 
     917   -1916386.6    485.24543   -1915901.3    305.52796   -275.80782    123348.33 
     918   -1916394.2    489.35389   -1915904.8    308.11479   -118.99373    123348.33 
     919     -1916392    493.69799   -1915898.3    310.84999    146.85221    123348.33 
     920   -1916396.9    496.80376   -1915900.1     312.8055    483.29712    123348.33 
     921   -1916397.9    497.58164   -1915900.3    313.29528    1225.7526    123348.33 
     922   -1916392.1    495.65476   -1915896.4    312.08205    2216.9742    123348.33 
     923   -1916389.2    491.56207   -1915897.7    309.50514    3195.1806    123348.33 
     924   -1916385.4    486.58678   -1915898.8    306.37252    4256.3234    123348.33 
     925   -1916381.7    482.39002   -1915899.3    303.73009    5417.0023    123348.33 
     926   -1916380.5    480.42408   -1915900.1    302.49226    6614.7124    123348.33 
     927   -1916377.8    481.47243   -1915896.3    303.15234    7499.2955    123348.33 
     928   -1916384.3    485.57209   -1915898.8    305.73364    8180.3672    123348.33 
     929   -1916388.2    492.21734     -1915896    309.91772    8541.4778    123348.33 
     930   -1916399.1    500.66872   -1915898.4    315.23902    8468.4583    123348.33 
     931   -1916410.2     510.1822     -1915900    321.22904    8371.3366    123348.33 
     932   -1916420.1    519.69359   -1915900.4    327.21776    7700.6823    123348.33 
     933   -1916427.2    527.44321   -1915899.8    332.09719    7050.8274    123348.33 
     934   -1916431.8    531.39354   -1915900.5    334.58447     6285.392    123348.33 
     935   -1916432.5    530.26919   -1915902.2    333.87653    5341.1428    123348.33 
     936   -1916425.8    524.49133   -1915901.3    330.23858    4374.8384    123348.33 
     937   -1916414.6    516.09822   -1915898.5    324.95398    3486.7671    123348.33 
     938   -1916407.4    507.71839   -1915899.6    319.67774    2543.5022    123348.33 
     939   -1916398.7    501.46812   -1915897.2    315.74235    1651.2427    123348.33 
     940   -1916395.5    498.45862   -1915897.1    313.84745     719.6581    123348.33 
     941   -1916399.5    498.69535   -1915900.8    313.99651   -63.662441    123348.33 
     942   -1916401.5    501.32085   -1915900.2    315.64962   -703.47586    123348.33 
     943   -1916402.7    504.97453   -1915897.8    317.95011   -1119.1189    123348.33 
     944   -1916404.8    508.04685   -1915896.7    319.88455   -1443.4932    123348.33 
     945   -1916409.4    509.08963   -1915900.3    320.54112   -1225.6258    123348.33 
     946   -1916402.2    507.16818   -1915895.1    319.33131   -608.16375    123348.33 
     947   -1916402.1     502.1178     -1915900    316.15141    228.22568    123348.33 
     948   -1916395.8    494.66912   -1915901.2    311.46145    1328.5053    123348.33 
     949   -1916385.9    486.47151   -1915899.4    306.29994    2581.9496    123348.33 
     950   -1916377.1    479.73782   -1915897.3    302.06017    3684.2878    123348.33 
     951   -1916374.3    476.55974   -1915897.7    300.05913    4815.8195    123348.33 
     952   -1916378.5    478.29884   -1915900.2    301.15414    5665.7317    123348.33 
     953   -1916382.3    485.16732   -1915897.1    305.47878    6453.2802    123348.33 
     954     -1916395    496.07085   -1915898.9    312.34403    7084.2939    123348.33 
     955   -1916408.6    508.85121   -1915899.8      320.391    7343.6659    123348.33 
     956   -1916419.9    520.96556   -1915898.9    328.01863    7202.0036    123348.33 
     957   -1916430.6    530.46034   -1915900.2    333.99689    7030.3467    123348.33 
     958   -1916433.6    536.54342     -1915897    337.82702    6686.2093    123348.33 
     959   -1916438.3     539.2889     -1915899    339.55567    6388.8669    123348.33 
     960   -1916435.9    539.10979   -1915896.8     339.4429    5900.9287    123348.33 
     961   -1916436.3     536.5154   -1915899.8    337.80937    5314.9546    123348.33 
     962   -1916437.3    532.26627     -1915905    335.13397    4377.6632    123348.33 
     963   -1916429.9    527.79534   -1915902.1    332.31891    3618.2224    123348.33 
     964   -1916424.2     524.9407   -1915899.2    330.52152    2726.9291    123348.33 
     965   -1916422.8     525.0892   -1915897.7    330.61503    1954.1445    123348.33 
     966   -1916429.9    528.52724   -1915901.4    332.77974    1144.5255    123348.33 
     967   -1916432.9    534.18321   -1915898.7    336.34094    540.11255    123348.33 
     968   -1916439.3    540.06664   -1915899.2    340.04536   -18.478742    123348.33 
     969   -1916442.7    544.05831   -1915898.7    342.55866   -124.82014    123348.33 
     970   -1916441.4     544.5443   -1915896.8    342.86465    53.537551    123348.33 
     971   -1916440.6    540.78362   -1915899.8     340.4968    346.46574    123348.33 
     972   -1916434.9     533.0022   -1915901.9    335.59734    1000.2849    123348.33 
     973   -1916422.3    522.44754   -1915899.8    328.95174    1787.2233    123348.33 
     974   -1916409.6     511.0765   -1915898.5    321.79213    2662.4192    123348.33 
     975   -1916400.2    500.98266   -1915899.2    315.43668    3597.0369    123348.33 
     976   -1916392.3    494.15454   -1915898.1    311.13745    4420.9655    123348.33 
     977   -1916390.3    492.04284   -1915898.2    309.80785    5055.2143    123348.33 
     978     -1916395    495.03835     -1915900    311.69393    5664.2458    123348.33 
     979   -1916403.4    502.27839   -1915901.1    316.25252    6100.6056    123348.33 
     980   -1916411.7    511.74968     -1915900    322.21598    6341.2233    123348.33 
     981     -1916418    520.82729   -1915897.2    327.93157    6425.8367    123348.33 
     982   -1916429.7    527.16376   -1915902.5    331.92125    6267.9442    123348.33 
     983   -1916429.8     529.4026   -1915900.4     333.3309    6031.9748    123348.33 
     984   -1916425.9    527.68627   -1915898.2    332.25024     5725.809    123348.33 
     985   -1916420.9    523.36832   -1915897.5     329.5315    5496.9335    123348.33 
     986   -1916419.2     518.1198   -1915901.1    326.22684    5308.9358    123348.33 
     987   -1916410.6    513.15547   -1915897.4    323.10112     5153.407    123348.33 
     988   -1916409.9    509.18652   -1915900.7    320.60213    4927.8016    123348.33 
     989   -1916405.9    506.83221   -1915899.1    319.11977    4544.2275    123348.33 
     990     -1916404     506.7167   -1915897.3    319.04704    4112.4974    123348.33 
     991   -1916411.5    509.32116   -1915902.1     320.6869    3835.7401    123348.33 
     992   -1916414.2    514.47135   -1915899.7    323.92965    3511.4723    123348.33 
     993   -1916421.3    521.02956   -1915900.3    328.05893     3472.167    123348.33 
     994   -1916427.1    527.08619     -1915900     331.8724    3323.5697    123348.33 
     995     -1916427    530.61951   -1915896.4    334.09711    3525.4043    123348.33 
     996   -1916428.5    530.19967   -1915898.3    333.83276    3757.3597    123348.33 
     997   -1916422.5    525.32913   -1915897.2    330.76609    4223.8778    123348.33 
     998   -1916413.3    516.64251   -1915896.7    325.29668    4826.7956    123348.33 
     999   -1916401.5    505.70634   -1915895.8    318.41088    5314.1818    123348.33 
    1000   -1916393.6    494.57045     -1915899    311.39933    5962.5913    123348.33 
Loop time of 2583.19 on 10 procs for 1000 steps with 12288 atoms

Performance: 0.017 ns/day, 1435.106 hours/ns, 0.387 timesteps/s
96.4% CPU use with 10 MPI tasks x no OpenMP threads

MPI task timing breakdown:
Section |  min time  |  avg time  |  max time  |%varavg| %total
---------------------------------------------------------------
Pair    | 2352.2     | 2391.4     | 2428.2     |  58.6 | 92.57
Neigh   | 0.89907    | 0.92131    | 0.95856    |   2.0 |  0.04
Comm    | 153.16     | 189.99     | 229.11     | 207.8 |  7.35
Output  | 0.60625    | 0.62791    | 0.64954    |   1.8 |  0.02
Modify  | 0.2462     | 0.28151    | 0.32007    |   4.2 |  0.01
Other   |            | 0.01424    |            |       |  0.00

Nlocal:        1228.80 ave        1248 max        1216 min
Histogram: 2 0 4 0 0 2 0 0 0 2
Nghost:        5714.80 ave        5820 max        5673 min
Histogram: 6 0 2 0 0 0 0 0 0 2
Neighs:        0.00000 ave           0 max           0 min
Histogram: 10 0 0 0 0 0 0 0 0 0

Total # of neighbors = 0
Ave neighs/atom = 0.0000000
Neighbor list builds = 100
Dangerous builds not checked

Please see the log.cite file for references relevant to this simulation

Total wall time: 0:43:11
