1.197380000000000067e+01 1.266929999999999890e+00 5.599560000000000315e+00 6.373269999999999769e+00 4.552760000000000140e+00 7.788140000000000063e-01 3.170729999999999826e+00 2.699749999999999872e+00 9.614860000000000184e+00 9.797599999999999199e+00 1.005470000000000041e+01 1.577839999999999909e+00 2.316969999999999974e+00 1.665669999999999984e+00 7.250820000000000043e+00 1.648670000000000080e+00 4.741019999999999790e+00 1.163199999999999967e+01 3.028080000000000105e+00 7.518830000000000346e+00 4.211999999999999598e-03 5.555069999999999730e+00 1.065820000000000078e+01 5.383079999999999643e+00 1.191910000000000025e+01 3.807420000000000027e+00 2.592319999999999958e+00 6.842209999999999681e+00 1.058859999999999957e+01 1.181419999999999959e+01 8.583009999999999806e+00 1.512930000000000108e+00 9.829140000000000654e+00 6.372390000000000221e+00 2.477790000000000159e+00 1.126870000000000083e+01 7.027309999999999945e+00 5.391040000000000276e+00 5.740910000000000402e+00 7.312140000000000306e+00 8.338430000000000675e+00 1.178960000000000008e+01 8.980460000000000775e+00 9.563330000000000553e+00 7.468779999999999752e+00 9.045429999999999637e+00 7.383320000000000327e+00 6.037289999999999601e+00 5.793169999999999931e+00 8.444720000000000226e+00 1.651119999999999921e+00 4.259640000000000093e+00 7.684290000000000287e-01 5.280059999999999754e+00 3.377969999999999917e+00 1.130269999999999975e+01 2.431839999999999780e+00 1.102899999999999991e+01 1.147310000000000052e+01 4.441449999999999676e+00 5.057940000000000325e+00 8.515890000000000626e+00 1.022310000000000052e+01 1.524100000000000010e+00 4.710410000000000430e+00 7.471169999999999867e+00 9.454090000000000771e+00 9.258480000000000487e+00 1.089329999999999998e+01 6.197890000000000121e+00 1.414559999999999984e-01 1.021490000000000009e+01 3.681329999999999991e+00 1.151989999999999958e-01 8.758940000000000836e+00 3.164169999999999927e+00 5.234969999999999679e+00 5.226420000000000066e+00 9.273179999999999978e+00 7.831789999999999807e+00 2.367929999999999868e+00 1.626030000000000086e+00 8.765200000000000102e+00 6.760349999999999859e+00 4.620700000000000252e+00 7.783640000000000114e+00 7.202069999999999972e+00 2.629459999999999908e+00 6.763490000000000002e+00 2.304250000000000131e+00 3.510519999999999752e-01 1.052499999999999963e-02 2.317989999999999995e+00 5.572840000000000238e+00 1.021349999999999980e+01 8.515850000000000364e+00 7.059839999999999449e-01 6.254050000000000331e+00 4.959100000000000286e+00 4.257290000000000241e+00 4.784480000000000288e+00 1.098099999999999987e+01 3.156260000000000066e+00 1.045129999999999981e+01 1.132600000000000051e+01 8.255950000000000344e+00 1.039059999999999917e+01 3.878919999999999924e+00 1.815620000000000012e+00 2.140509999999999913e+00 3.948890000000000011e+00 6.025920000000000165e+00 1.194130000000000003e+01 2.935569999999999791e+00 1.609539999999999971e+00 1.853930000000000078e+00 2.388399999999999898e-02 9.828849999999999199e+00 5.580589999999999939e+00 1.120090000000000074e+01 2.866000000000000103e+00 7.153260000000000396e+00 9.198880000000000834e+00 3.762020000000000142e+00 8.039009999999999323e+00 4.247510000000000119e+00 6.710009999999999586e+00 7.781419999999999781e+00 3.900739999999999874e+00 7.443080000000000140e+00 2.277690000000000214e+00 1.216020000000000101e+00 1.163039999999999985e+01 1.061289999999999978e+01 7.761300000000000310e+00 7.076499999999999457e-02 8.469219999999999970e+00 9.441440000000000055e+00 6.968910000000000160e+00 1.234420000000000073e+01 7.458820000000000228e+00 1.078689999999999927e+01 1.146139999999999937e+01 1.145579999999999998e+01 7.777720000000000411e+00 7.250070000000000014e+00 8.988419999999999632e+00 1.027529999999999966e+01 7.116519999999999513e-01 7.452160000000000117e+00 4.379830000000000112e+00 3.543480000000000185e+00 7.320879999999999832e+00 1.022799999999999976e+01 1.533330000000000082e+00 3.027909999999999879e+00 6.684600000000000541e-01 9.190559999999999619e+00 3.449549999999999894e+00 1.090360000000000085e+01 2.737289999999999779e+00 1.192420000000000080e+01 1.526740000000000042e-01 4.393200000000000216e+00 9.375840000000000174e+00 8.254129999999999967e+00 4.386849999999999916e+00 8.797299999999999898e+00 4.277130000000000098e-01 7.533150000000000013e+00 4.164880000000000249e-01 1.230699999999999905e+00 1.222509999999999941e+01 9.320819999999999439e+00 2.349870000000000125e+00 1.145100000000000051e+01 5.033240000000000158e+00 3.888310000000000155e+00 3.953669999999999796e+00 2.626069999999999904e+00 6.851750000000000007e+00 2.627870000000000150e+00 5.984049999999999869e+00 4.108329999999999593e+00 6.547250000000000014e-01 7.731970000000000232e-01 9.709870000000000445e+00 5.409399999999999764e+00 3.076179999999999914e+00 1.117880000000000074e+01 3.666069999999999940e+00 5.165630000000000166e+00
4.108039999999999914e+00 2.578739999999999810e+00 1.359910000000000008e-01 1.148210000000000086e+01 8.834419999999999717e+00 4.540379999999999860e+00 1.020550000000000068e+01 7.643629999999999924e+00 7.331830000000000069e+00 2.396619999999999973e+00 6.576290000000000191e+00 3.494390000000000107e+00 9.214059999999999917e+00 4.179610000000000269e+00 4.207480000000000331e+00 1.955659999999999954e+00 3.856809999999999961e-01 6.933510000000000062e+00 9.897560000000000358e+00 9.946690000000000254e+00 6.435609999999999609e+00 7.534500000000000419e+00 8.443849999999999412e+00 6.714990000000000236e+00 3.976500000000000146e+00 3.352840000000000042e+00 3.603289999999999882e+00 7.563430000000000319e+00 8.626369999999999649e+00 3.293759999999999799e+00 4.360979999999999634e+00 1.114770000000000039e+01 3.736509999999999998e+00 6.421050000000000146e+00 6.655070000000000263e+00 1.914660000000000029e+00 6.602619999999999933e+00 6.283479999999999954e+00 5.698739999999999917e+00 4.678609999999999935e+00 5.727470000000000283e+00 1.139669999999999916e+01 8.563159999999999883e+00 1.949510000000000076e+00 5.704909999999999926e+00 5.923020000000000174e+00 1.010689999999999955e+01 9.448499999999999233e+00 5.035989999999999966e+00 1.090479999999999894e+00 2.392949999999999910e+00 1.179349999999999987e+01 5.707650000000000112e+00 6.784189999999999721e+00 1.786010000000000097e+00 1.115670000000000073e+01 9.513220000000000454e+00 5.994519999999999627e+00 2.942250000000000143e-01 1.012320000000000064e+01 8.074860000000000371e-01 3.514250000000000096e+00 1.058350000000000080e+01 8.922420000000000684e+00 5.664869999999999628e+00 8.391289999999999694e+00 1.086819999999999897e+00 1.158270000000000088e+01 1.196849999999999969e+00 5.734449999999999825e+00 9.525510000000000588e+00 5.486539999999999750e+00 1.540859999999999896e+00 3.858890000000000153e+00 2.965720000000000134e+00 9.710350000000000037e+00 7.366030000000000300e+00 1.102369999999999983e+01 9.587479999999999336e+00 6.294669999999999987e+00 1.635920000000000041e+00 8.349759999999999849e+00 2.467249999999999943e+00 8.392469999999999430e+00 4.159019999999999939e+00 4.359449999999999825e+00 1.608160000000000034e+00 1.666500000000000092e+00 6.934450000000000003e+00 8.283559999999999590e+00 3.453089999999999993e+00 8.902760000000000673e+00 1.094909999999999961e+01 1.315379999999999994e+00 2.258960000000000079e+00 8.075980000000000381e-01 1.166629999999999967e+01 1.148780000000000001e+01 3.673039999999999861e+00 1.088180000000000014e+01 2.477009999999999934e+00 2.834940000000000015e+00 1.984269999999999978e+00 9.210140000000000882e+00 5.080370000000000275e+00 6.227459999999999773e+00 3.775259999999999838e+00 8.521620000000000417e+00 4.165110000000000312e+00 1.049390000000000001e+01 7.663719999999999644e+00 4.171389999999999709e+00 7.617449999999999832e+00 8.732250000000000512e+00 4.130200000000000315e+00 1.167379999999999995e+01 1.166929999999999978e+01 6.948690000000000033e+00 6.906410000000000160e+00 1.028190000000000026e+01 2.554679999999999840e+00 4.585989999999999789e-01 2.962759999999999838e+00 1.056729999999999947e+01 4.815559999999999619e+00 1.044619999999999926e+01 8.859690000000000509e+00 7.248249999999999638e+00 4.824950000000000294e+00 6.752049999999999663e+00 3.767290000000000028e+00 9.930210000000000425e-01 7.273799999999999599e+00 1.195090000000000074e+01 3.271609999999999907e+00 9.429539999999999367e+00 9.194919999999999760e+00 1.877690000000000081e+00 2.984560000000000102e+00 3.452259999999999884e+00 5.899090000000000167e+00 6.486889999999999823e+00 2.421110000000000095e+00 3.944920000000000204e+00 8.204330000000000567e+00 2.333079999999999821e+00 1.077270000000000039e+01 4.367199999999999971e-01 8.961899999999999977e+00 1.001469999999999949e+01 3.203059999999999796e+00 1.219179999999999930e+00 9.257080000000000197e+00 6.053079999999999572e+00 9.356880000000000308e+00 9.158910000000000107e-01 8.181480000000000530e+00 1.198199999999999932e+01 7.687630000000000408e+00 1.560699999999999976e+00 6.695780000000000065e+00 8.734999999999999709e-03 1.168820000000000014e+01 1.189049999999999940e+00 1.019490000000000052e+01 8.033250000000000668e+00 1.106279999999999930e+01 1.124699999999999989e+01 1.027110000000000056e+01 1.083280000000000065e+01 9.704280000000000683e+00 3.759240000000000137e+00 6.187979999999999592e+00 6.389310000000000045e+00 1.174130000000000074e+01 5.939729999999999954e+00 3.822929999999999939e+00 2.714879999999999960e+00 5.016169999999999796e+00 9.450850000000000861e+00 1.540159999999999973e+00 9.048759999999999692e+00 1.568300000000000027e+00 9.190279999999999561e+00 1.081210000000000004e+00 9.886549999999999505e-01 1.121439999999999948e+01 2.634700000000000042e+00 6.682800000000000296e+00 5.359409999999999563e+00 2.738479999999999803e-01 5.961310000000000109e+00
7.812289999999999512e-01 1.457500000000000018e+00 6.613940000000000374e-01 4.014669999999999739e+00 4.867060000000000386e+00 2.793340000000000156e+00 1.583390000000000075e+00 5.028850000000000264e+00 4.361919999999999575e+00 3.574549999999999894e+00 2.247780000000000111e+00 3.863170000000000215e+00 6.709640000000000271e+00 1.328959999999999919e+00 1.713649999999999896e+00 9.891009999999999636e+00 4.015950000000000131e+00 9.163430000000000186e-01 8.076779999999999404e+00 3.215269999999999850e+00 3.781859999999999999e+00 1.038240000000000052e+01 1.975379999999999914e+00 3.730970000000000120e+00 2.290610000000000035e+00 8.365230000000000388e+00 3.048360000000000181e+00 4.149680000000000035e+00 1.006140000000000079e+01 1.039549999999999974e+00 1.660190000000000055e+00 1.122630000000000017e+01 4.511639999999999873e+00 4.663739999999999775e+00 8.360760000000000858e+00 4.477159999999999584e+00 8.395910000000000650e+00 8.093199999999999505e+00 1.950290000000000079e+00 1.041169999999999973e+01 1.025189999999999912e+01 1.834140000000000104e+00 8.636480000000000601e+00 1.011810000000000009e+01 3.640519999999999978e+00 1.075789999999999935e+01 9.004949999999999122e+00 5.284679999999999822e+00 2.411910000000000220e+00 1.697179999999999911e+00 7.626490000000000435e+00 5.563589999999999591e+00 3.790109999999999868e+00 7.749259999999999593e+00 3.788199999999999901e-01 3.544599999999999973e+00 1.091280000000000072e+01 3.700499999999999901e+00 1.291989999999999972e+00 1.074639999999999951e+01 7.748709999999999987e+00 1.730799999999999894e+00 7.046450000000000102e+00 1.166450000000000031e+01 5.223279999999999923e+00 7.093820000000000014e+00 6.940120000000000289e+00 3.618819999999999926e+00 1.083610000000000007e+01 9.453170000000000073e+00 1.592049999999999965e+00 1.030150000000000077e+01 2.222510000000000208e+00 8.425950000000000273e+00 8.400880000000000791e+00 4.309730000000000061e+00 9.784689999999999444e+00 7.168040000000000411e+00 1.799739999999999895e+00 9.702180000000000248e+00 1.149390000000000001e+01 5.091759999999999842e+00 7.340790000000000148e+00 1.015670000000000073e+01 8.192080000000000695e+00 8.233280000000000598e+00 6.632249999999999979e+00 1.056099999999999994e+01 1.031980000000000075e+01 7.825800000000000090e+00 7.524289999999999701e+00 9.987049999999999983e+00 1.052779999999999916e+01 1.120209999999999972e+01 7.094680000000000319e+00 1.107019999999999982e+01 3.824460000000000193e+00 1.894269999999999898e+00 1.503169999999999895e+00 1.026270000000000016e+00 4.547410000000000174e+00 1.870649999999999924e+00 5.435999999999999943e+00 4.374979999999999869e+00 5.012909999999999755e+00 1.355450000000000044e+00 2.020199999999999996e+00 5.219280000000000364e+00 9.545429999999999637e+00 1.268229999999999968e+00 1.349350000000000049e+00 6.409440000000000026e+00 4.925430000000000419e+00 1.668039999999999967e+00 9.960670000000000357e+00 5.860780000000000101e+00 3.642009999999999970e+00 7.146580000000000155e+00 8.520999999999999686e-01 4.805060000000000109e+00 4.501000000000000334e+00 7.354949999999999655e+00 1.714080000000000048e+00 6.787729999999999597e-01 1.162250000000000050e+01 1.688020000000000076e+00 4.614810000000000301e+00 1.101420000000000066e+01 4.849929999999999630e+00 1.663720000000000088e+00 7.826800000000000423e+00 5.856449999999999712e+00 1.191760000000000019e+01 8.123929999999999652e+00 1.961629999999999985e+00 6.798079999999999679e+00 1.098509999999999920e+01 1.658549999999999969e+00 1.064300000000000068e+01 1.187040000000000006e+01 4.996649999999999814e+00 7.501269999999999882e+00 7.155470000000000219e+00 4.033269999999999911e+00 5.331920000000000215e+00 7.029659999999999798e-01 8.161889999999999645e+00 2.352609999999999868e+00 4.904659999999999798e+00 7.739799999999999791e+00 4.261910000000000309e+00 4.381380000000000052e+00 1.044839999999999947e+01 8.477559999999999540e-01 7.603440000000000198e-01 9.830420000000000158e+00 1.030749999999999922e+01 9.949029999999999818e-01 7.742790000000000283e+00 7.970209999999999795e+00 4.992600000000000371e+00 7.373370000000000424e+00 1.009089999999999954e+01 4.403229999999999755e+00 9.557169999999999277e+00 6.874660000000000437e+00 9.673159999999999537e-01 1.065290000000000070e+01 5.367399999999999949e+00 7.127110000000000056e+00 6.938810000000000144e+00 2.072229999999999794e+00 1.127330000000000076e+01 8.111459999999999226e+00 4.977039999999999687e+00 1.038449999999999918e+01 1.045229999999999926e+01 1.362079999999999957e+00 6.042250000000000121e+00 1.027519999999999989e+01 1.078630000000000067e+01 7.670880000000000365e+00 8.508309999999999818e+00 7.554490000000000371e+00 1.044500000000000028e+01 7.798750000000000071e+00 1.113729999999999976e+01 9.711769999999999570e+00 1.128459999999999930e+01 8.236029999999999518e+00 7.261339999999999684e+00 1.127369999999999983e+01
4.215399999999999814e+00 2.534069999999999823e+00 1.054309999999999969e-01 1.144720000000000049e+01 8.905350000000000321e+00 4.427609999999999602e+00 1.008929999999999971e+01 7.676859999999999573e+00 7.363120000000000331e+00 2.409469999999999779e+00 6.562759999999999927e+00 3.539890000000000203e+00 9.225600000000000023e+00 4.176070000000000171e+00 4.279099999999999682e+00 1.968939999999999912e+00 3.288380000000000192e-01 6.990420000000000300e+00 9.946550000000000225e+00 9.923349999999999227e+00 6.372440000000000104e+00 7.553440000000000154e+00 8.417669999999999320e+00 6.750169999999999781e+00 4.045300000000000118e+00 3.327939999999999898e+00 3.679199999999999804e+00 7.422180000000000000e+00 8.754060000000000841e+00 3.368279999999999941e+00 4.339400000000000368e+00 1.118040000000000056e+01 3.799570000000000114e+00 6.484519999999999840e+00 6.616649999999999920e+00 1.879999999999999893e+00 6.549179999999999779e+00 6.322869999999999990e+00 5.692140000000000200e+00 4.733620000000000161e+00 5.685620000000000118e+00 1.138059999999999938e+01 8.563650000000000873e+00 1.941899999999999959e+00 5.711920000000000108e+00 5.917399999999999771e+00 9.961360000000000881e+00 9.390760000000000218e+00 5.071080000000000254e+00 1.059539999999999926e+00 2.516360000000000152e+00 1.175600000000000023e+01 5.830580000000000318e+00 6.773550000000000182e+00 1.867760000000000087e+00 1.115419999999999945e+01 9.612629999999999342e+00 5.966719999999999580e+00 1.922290000000000110e-01 1.006530000000000058e+01 7.960650000000000226e-01 3.511190000000000033e+00 1.057690000000000019e+01 9.001530000000000697e+00 5.628999999999999559e+00 8.396480000000000388e+00 1.073450000000000015e+00 1.170379999999999932e+01 1.116670000000000051e+00 5.696399999999999686e+00 9.496919999999999362e+00 5.449180000000000135e+00 1.543679999999999941e+00 3.849009999999999820e+00 2.856829999999999981e+00 9.677519999999999456e+00 7.373649999999999594e+00 1.104160000000000075e+01 9.625909999999999300e+00 6.225249999999999950e+00 1.650989999999999958e+00 8.395880000000000010e+00 2.433530000000000193e+00 8.346389999999999532e+00 4.164130000000000109e+00 4.335549999999999571e+00 1.529539999999999900e+00 1.660250000000000004e+00 7.028520000000000323e+00 8.349629999999999441e+00 3.411729999999999929e+00 8.876849999999999241e+00 1.094759999999999955e+01 1.207070000000000087e+00 2.219269999999999854e+00 9.195449999999999458e-01 1.166239999999999988e+01 1.147349999999999959e+01 3.703399999999999803e+00 1.093880000000000052e+01 2.503929999999999989e+00 2.843640000000000168e+00 2.025240000000000151e+00 9.207190000000000651e+00 5.125000000000000000e+00 6.198610000000000397e+00 3.812809999999999810e+00 8.448969999999999203e+00 4.223290000000000433e+00 1.059430000000000049e+01 7.675349999999999895e+00 4.157569999999999766e+00 7.630770000000000053e+00 8.746980000000000643e+00 4.196530000000000094e+00 1.169759999999999955e+01 1.167689999999999984e+01 6.928849999999999731e+00 6.971669999999999590e+00 1.025730000000000075e+01 2.597890000000000033e+00 4.809039999999999981e-01 2.907119999999999926e+00 1.051469999999999949e+01 4.811379999999999768e+00 1.037180000000000035e+01 8.784720000000000084e+00 7.225229999999999819e+00 4.826220000000000176e+00 6.786450000000000315e+00 3.764390000000000125e+00 1.018550000000000066e+00 7.292869999999999742e+00 1.189990000000000059e+01 3.301969999999999850e+00 9.390930000000000888e+00 9.257020000000000692e+00 1.764520000000000088e+00 2.962089999999999890e+00 3.523130000000000095e+00 5.919640000000000235e+00 6.429710000000000036e+00 2.360360000000000014e+00 3.954159999999999897e+00 8.133319999999999439e+00 2.312250000000000139e+00 1.084479999999999933e+01 4.098539999999999961e-01 8.869859999999999189e+00 1.004649999999999999e+01 3.201789999999999914e+00 1.280999999999999917e+00 9.276460000000000150e+00 6.023109999999999964e+00 9.347189999999999444e+00 8.784779999999999811e-01 8.149219999999999686e+00 1.192220000000000013e+01 7.655499999999999972e+00 1.555679999999999952e+00 6.621129999999999960e+00 2.005999999999999971e-03 1.179039999999999999e+01 1.104079999999999950e+00 1.022509999999999941e+01 8.004759999999999209e+00 1.106499999999999950e+01 1.122129999999999939e+01 1.020919999999999916e+01 1.084469999999999956e+01 9.747970000000000468e+00 3.761010000000000186e+00 6.211400000000000254e+00 6.378429999999999822e+00 1.175309999999999988e+01 6.003079999999999750e+00 3.810449999999999893e+00 2.734100000000000197e+00 5.013799999999999812e+00 9.481669999999999376e+00 1.545970000000000066e+00 9.087949999999999307e+00 1.638230000000000075e+00 9.117549999999999599e+00 1.035619999999999985e+00 9.288009999999999877e-01 1.132830000000000048e+01 2.636099999999999888e+00 6.660190000000000055e+00 5.427819999999999645e+00 3.009140000000000148e-01 5.921560000000000379e+00
1.964469999999999938e+00 4.056510000000000282e+00 1.229519999999999946e+01 8.463490000000000180e+00 1.121990000000000087e+01 4.246129999999999960e+00 1.109650000000000025e+00 3.768289999999999917e+00 2.456939999999999902e+00 8.207919999999999661e+00 4.401669999999999749e-01 1.124230000000000063e+00 3.875280000000000058e+00 3.731549999999999923e+00 6.487870000000000026e+00 2.878499999999999837e+00 5.511700000000000266e+00 7.580910000000000259e+00 1.186830000000000052e+00 2.528249999999999886e+00 8.707829999999999515e+00 7.677229999999999777e+00 7.212259999999999671e+00 5.321489999999999831e-01 4.270769999999999733e+00 1.149980000000000047e+01 2.701430000000000220e+00 1.140179999999999971e+01 6.495600000000000263e-01 6.088809999999999611e+00 1.204920000000000080e+01 1.075399999999999956e+01 1.170340000000000025e+01 7.699099999999999611e+00 6.200319999999999609e+00 9.058989999999999654e+00 6.373199999999999754e+00 1.072610000000000063e+01 1.032390000000000008e+01 2.891840000000000188e+00 9.915270000000000472e-01 6.871710000000000207e+00 7.583789999999999587e+00 4.199740000000000251e+00 2.825289999999999857e+00 9.701269999999999172e+00 6.773480000000000167e+00 1.125239999999999974e+01 9.526740000000000208e+00 1.737370000000000081e+00 9.908630000000000493e+00 9.709530000000000882e+00 2.292060000000000208e+00 3.009399999999999853e+00 6.857999999999999652e-01 5.018930000000000113e+00 7.379699999999999704e+00 5.389809999999999768e+00 6.247530000000000250e+00 9.592069999999999652e+00 1.138059999999999938e+01 8.256009999999999849e+00 5.086719999999999686e+00 3.480290000000000106e+00 9.143810000000000215e+00 1.774049999999999905e+00 2.477570000000000050e+00 2.310099999999999931e-01 9.598779999999999646e+00 9.430419999999999803e+00 6.681930000000000369e+00 7.362230000000000274e+00 5.739740000000000286e+00 5.070039999999999658e+00 7.133729999999999905e+00 1.181819999999999915e+01 1.995139999999999969e-01 8.592069999999999652e+00 5.579100000000000392e+00 9.710250000000000270e+00 5.462579999999999991e+00 2.294880000000000031e+00 1.033680000000000021e+01 7.919190000000000396e+00 1.089049999999999940e+01 1.021129999999999960e+01 7.000250000000000306e+00 6.295900000000000107e-02 5.216059999999999697e+00 1.133280000000000065e+01 6.432500000000000107e+00 9.122500000000000497e+00 2.621570000000000178e+00 7.780669999999999753e+00 6.674669999999999881e+00 3.342229999999999812e+00 5.685929999999999929e+00 8.619360000000000355e+00 1.192660000000000053e+01 4.098910000000000053e+00 1.123039999999999949e+01 1.193759999999999977e+01 7.245390000000000441e+00 3.605640000000000178e+00 9.713240000000000762e+00 6.299479999999999968e+00 2.160540000000000127e+00 6.552710000000000257e+00 3.796279999999999877e+00 3.628559999999999786e+00 9.686429999999999652e+00 1.063400000000000034e+01 4.502030000000000420e+00 9.055139999999999745e+00 3.464719999999999800e+00 3.248679999999999790e+00 3.972649999999999793e+00 4.688010000000000232e+00 5.990230000000000388e+00 5.354250000000000398e+00 6.769859999999999767e-01 8.205140000000000100e+00 1.203270000000000017e+01 3.874790000000000179e-01 4.903470000000000439e+00 4.542399999999999771e+00 9.005429999999999824e-01 8.203969999999999985e+00 7.402110000000000412e+00 1.629569999999999963e+00 1.148509999999999920e+01 4.829449999999999577e+00 6.707250000000000156e+00 9.725679999999999881e-01 1.156329999999999991e+01 1.155339999999999989e+01 1.224050000000000082e+01 2.951410000000000089e+00 1.032189999999999941e+01 8.816110000000000113e+00 2.673160000000000203e+00 9.431079999999999686e+00 4.666339999999999932e+00 9.915019999999999945e-01 5.441670000000000229e+00 5.486559999999999881e+00 2.027799999999999880e-01 1.096780000000000088e+00 6.776629999999999932e+00 1.985999999999999988e+00 1.100430000000000064e+01 1.611839999999999939e+00 1.203909999999999947e+01 5.576120000000000410e+00 1.893969999999999931e+00 1.936970000000000081e+00 8.204589999999999606e+00 9.383639999999999759e+00 8.381859999999999644e+00 6.102680000000000327e+00 1.205770000000000053e+01 5.584640000000000271e+00 4.998840000000000394e+00 6.716719999999999580e+00 2.596839999999999815e+00 8.756959999999999411e+00 1.013240000000000052e+01 3.329210000000000225e-01 4.193900000000000183e+00 8.507699999999999818e+00 8.271819999999999951e+00 1.026750000000000007e+01 3.000490000000000101e+00 5.599789999999999601e+00 4.956780000000000186e+00 7.641499999999999682e-02 8.824640000000000484e+00 7.873689999999999856e+00 4.984479999999999578e+00 5.682520000000000238e+00 7.980179999999999829e+00 8.893489999999999895e+00 5.113579999999999792e+00 2.046370000000000022e+00 1.170059999999999967e+01 9.329220000000000290e-01 2.307990000000000208e+00 8.774609999999999133e+00 4.097809999999999953e+00 9.184260000000000090e+00 1.237040000000000006e+01 7.200999999999999623e+00
1.172450000000000081e+01 3.475490000000000190e+00 2.825219999999999843e+00 1.116139999999999910e+00 9.326850000000000307e+00 4.506990000000000052e+00 1.207249999999999979e+01 6.453879999999999839e+00 9.237690000000000623e+00 6.076229999999999798e+00 5.102670000000000261e-01 3.904349999999999987e+00 6.951590000000000380e+00 1.210120000000000084e+00 7.250590000000000090e-01 7.948800000000000310e+00 6.943100000000000271e+00 6.408789999999999765e-01 8.467109999999999914e+00 4.557010000000000005e+00 9.028479999999999839e-01 1.191910000000000025e+01 3.194850000000000190e+00 5.869360000000000355e+00 1.145390000000000086e+01 1.036289999999999978e+01 1.191869999999999941e+01 1.504850000000000021e+00 9.578089999999999549e+00 6.566710000000000047e-01 1.169180000000000064e+01 1.190579999999999927e+01 6.823330000000000339e+00 4.293890000000000207e+00 7.173919999999999852e+00 8.290079999999999671e+00 9.600899999999999324e+00 7.246699999999999697e+00 3.746710000000000207e+00 1.149619999999999997e+01 9.311169999999999725e-01 3.488510000000000222e+00 7.198789999999999800e+00 1.110679999999999978e+01 1.219050000000000011e+01 1.006879999999999953e+01 6.252909999999999968e+00 8.163529999999999731e+00 2.660460000000000047e+00 -1.745559999999999889e-01 6.169640000000000235e+00 5.715519999999999712e+00 4.374649999999999928e+00 7.850229999999999819e+00 1.798240000000000061e+00 4.256529999999999703e+00 1.101800000000000068e+01 2.551559999999999828e+00 1.780580000000000052e+00 8.627390000000000114e+00 8.992520000000000735e+00 1.181750000000000078e+01 6.020039999999999836e+00 5.469260000000000232e-01 2.516109999999999847e+00 8.100469999999999615e+00 7.364620000000000388e+00 5.890640000000000320e+00 8.809480000000000643e+00 7.219990000000000130e+00 1.594819999999999904e+00 7.897190000000000154e+00 1.179170000000000051e+01 8.777309999999999945e+00 6.498879999999999768e+00 6.572479999999999656e+00 9.777879999999999683e+00 7.884380000000000166e+00 3.157379999999999853e+00 1.017650000000000077e+01 9.901059999999999306e+00 4.615980000000000416e+00 6.256109999999999616e+00 1.231370000000000076e+01 6.762609999999999566e+00 7.343449999999999811e+00 6.276729999999999698e+00 9.380219999999999558e+00 1.056729999999999947e+01 1.082039999999999935e+01 9.564610000000000056e+00 9.055780000000000385e+00 8.752259999999999707e+00 1.121879999999999988e+01 5.023299999999999876e+00 1.147710000000000008e+01 2.341219999999999857e+00 2.610949999999999882e+00 8.915260000000000407e-01 2.142630000000000035e+00 5.906979999999999897e+00 7.790909999999999780e-01 4.776379999999999626e+00 5.387299999999999756e+00 5.631639999999999979e+00 1.860030000000000072e+00 3.955200000000000049e+00 3.700750000000000206e+00 9.521900000000000475e+00 1.921610000000000040e+00 5.279819999999999514e-01 5.781869999999999621e+00 3.835069999999999979e+00 1.110840000000000050e+00 1.147439999999999927e+01 6.237379999999999924e+00 6.041680000000000383e+00 8.731820000000000803e+00 1.838850000000000096e+00 4.041479999999999961e+00 2.616220000000000212e+00 7.004879999999999995e+00 3.941079999999999917e+00 1.933750000000000080e+00 1.020429999999999948e+00 3.970139999999999780e+00 5.993549999999999933e+00 9.279740000000000322e+00 5.188170000000000393e+00 3.765050000000000008e+00 1.082119999999999926e+01 2.845169999999999977e+00 1.160019999999999918e+01 9.043689999999999785e+00 2.767149999999999999e+00 4.667480000000000295e+00 9.172380000000000422e+00 7.212410000000000210e-01 8.092180000000000817e+00 1.140830000000000055e+01 1.787639999999999896e+00 7.195240000000000080e+00 5.168800000000000061e+00 3.422670000000000101e+00 5.027339999999999698e+00 1.834859999999999935e+00 5.892009999999999970e+00 1.835779999999999967e+00 5.396359999999999602e+00 7.637089999999999712e+00 4.305810000000000137e+00 3.407109999999999861e+00 1.049929999999999986e+01 2.857499999999999929e+00 1.181359999999999921e+01 1.229780000000000051e+01 9.681050000000000821e+00 4.985780000000000212e-01 8.892010000000000858e+00 8.437089999999999534e+00 3.172779999999999934e+00 6.346210000000000129e+00 7.324829999999999952e-01 9.480340000000000433e-01 1.044549999999999912e+01 7.399700000000000166e+00 3.544299999999999784e+00 1.084890000000000043e+01 6.076139999999999652e+00 8.264989999999999171e+00 1.054110000000000014e+01 2.354490000000000194e+00 9.014160000000000394e+00 6.968239999999999768e+00 5.113249999999999851e+00 2.970929999999999960e-01 1.014630000000000010e+01 7.939239999999999631e-01 7.698220000000000063e+00 1.146759999999999913e+01 -5.831800000000000178e-02 1.037459999999999916e+01 9.037789999999999324e+00 8.973639999999999617e+00 8.891819999999999169e+00 6.243339999999999890e+00 1.029560000000000031e+01 6.664749999999999730e+00 6.516739999999999755e-01 1.007879999999999932e+01 3.696940000000000115e+00 9.198520000000000252e+00