-1.049817628688457262e+04
-1.049421609969984820e+04
-1.050257596884297345e+04
-1.049384617887737841e+04
-1.049581063280893250e+04
-1.049783999229634901e+04
-1.049215197159423769e+04
-1.049772664438496213e+04
-1.049860784123676785e+04
-1.049427304423904206e+04
-1.049552675980935965e+04
-1.049876828002386537e+04
-1.049068036101941834e+04
-1.049704620934366176e+04
-1.050187589623118765e+04
-1.049544421921535650e+04
-1.049850263005250417e+04
-1.049339570195883425e+04
-1.049853981294033474e+04
-1.049554496243024187e+04
-1.049344533442891952e+04
-1.049794790225189536e+04
-1.049471957781379206e+04
-1.049666564043990002e+04
-1.049629819285228768e+04
-1.049409222323457107e+04
-1.050338473395673464e+04
-1.049583491130310358e+04
-1.049743525098920145e+04
-1.049504690956461673e+04
-1.049571050877869493e+04
-1.049584142612615506e+04
-1.049462579603270387e+04
-1.049599007636522219e+04
-1.049472398472568966e+04
-1.049432246671383109e+04
-1.049111406628523218e+04
-1.049541881015502622e+04
-1.049712336713861077e+04
-1.049139291085234981e+04
-1.049525449994342489e+04
-1.049698921979220722e+04
-1.049614123768535319e+04
-1.049713563984839493e+04
-1.049729546333764483e+04
-1.049712858732966924e+04
-1.049028137008673548e+04
-1.049535170423080490e+04
-1.049653702495756625e+04
-1.049393589205393073e+04
-1.049854751866581501e+04
-1.049538767573749283e+04
-1.049600142479115129e+04
-1.049397805132221038e+04
-1.049455840897067901e+04
-1.049864513397364863e+04
-1.049551134860342427e+04
-1.049500461351609556e+04
-1.049554731406772407e+04
-1.049856132911735949e+04
-1.050310078966762376e+04
-1.049357834196745171e+04
-1.049542305539911285e+04
-1.049852541639365154e+04
-1.049040887701657266e+04
-1.049426483111379275e+04
-1.049423483324254266e+04
-1.049694640807407268e+04
-1.049538773709930865e+04
-1.049566598121483730e+04
-1.049511132636223556e+04
