9.440345180981440931e-01 -7.204796695013988561e-01 2.841084417629817782e-01 -9.735893489141347890e-02 1.987127984496621425e+00 7.663568916137999398e-01 -2.030986376408351057e-01 -6.251920153151060422e-01 3.653445029631455787e-01 5.508629656420477305e-01 1.080094726184391618e+00 -1.300885638884904660e-01 -8.648085453479098517e-01 1.883353633002157745e-01 -9.005371090699778591e-01 -5.726782617279563281e-01 -2.828213475214432643e-02 9.641467154513415627e-01 1.047349670568359148e+00 8.325273167418123510e-01 -3.200380657521059158e-01 -2.522668717971220942e-01 -1.913672081456456453e-01 7.010375016315111285e-01 4.153246914971350234e-01 7.804789328264934156e-02 -7.915717002969162586e-01 -2.208279365860066346e-01 1.894164607566322989e+00 4.006514057670906848e-01 8.148972623785893932e-01 2.526381390933229998e-01 -1.322061244504782983e-02 -2.182557021413306764e+00 3.511324731398770549e-01 -4.828619150646238367e+00 1.140731623092989255e-01 4.574388470256053885e-01 2.052259683948282065e-01 5.079815929308465483e-01 -2.442794313004214679e+00 4.038174621974352507e-02 -6.633677550241823262e-01 -1.026713482391299059e-01 1.894959592663174319e-01 -2.867227394553436004e-01 -4.153128644226022903e-01 1.233486740667385367e-01 -1.542968371068095701e+00 4.279560070980745201e-01 -1.164330750550810256e+00 7.226738489375335028e-01 8.500031049154783691e-01 7.286197821036978495e-02 -8.848163559128405797e-01 -1.912770652688811079e+00 2.201815612517621645e-01 -2.455953733194072008e-01 -6.038127783250123448e-01 -1.466402975867090418e-02 2.867355949711400953e-01 5.258780135813716228e-02 1.069343401213522116e+00 1.822541901078729154e+00 1.139188961197417638e-01 -2.107959034349787153e+00 5.935988139144334763e-01 -4.298390830519354666e-01 -1.017590179940889294e+00 -4.797781339353763275e-01 -3.355037654758421528e-01 -1.742179500732090507e-03 2.162389802452500565e+00 -7.156285120604584105e-01 -2.495564148466029517e-02 1.080780182286657398e+00 -1.641402541300722440e-01 -3.210505661762327323e-01 -4.520061060500343841e-01 -6.563399016485904625e-01 3.390925112655733542e-02 2.696588420077953296e-01 -2.472491068714598450e-01 -4.612744187186280098e-01 4.116043052256483925e-01 1.746750922149300778e-01 -3.012726122337422430e-01 -4.544378554180869001e-01 -1.451010295473077916e+00 6.675560820706590015e-02 3.267054504647659563e-01 -8.100517613645991447e-03 -5.326117327555411896e-01 -5.884735768767128672e-01 3.147379936995540750e-01 -7.879474732835870521e-01 -8.709611952080810182e-01 8.787768345916779911e-01 2.204073041091474672e-01 6.221324025555557968e-01 4.734856160633402200e-01 -2.773572390873289550e-01 2.167342261357917133e-01 -9.075042844110108309e-01 5.352044331813651246e-01 1.557332610198393752e+00 5.781649958698723557e-01 1.199984752281259226e+00 1.479793281120651338e+00 1.031356894696969367e-01 -7.079167452444963260e-01 -1.463137674854797232e-01 4.289870194649481605e-01 -2.069151831704790223e-01 -3.871505430776806533e-01 -9.321225971611726835e-02 8.962865613270466292e-04 -6.101752302029811448e-01 -2.227356951301967258e-01 1.251088512895856542e-01 -4.601976407155190518e-01 -6.299120464949230502e-01 -1.248705100267198498e+00 6.506999297583809794e-02 6.060270123657893748e-01 9.128691482631765552e-01 6.623439417461547407e-01 -1.414422469075176547e+00 1.415965645191380018e+00 2.938397586884995860e+00 -1.263771250559981851e+00 4.596795120068597917e+00 -6.439101605353388935e-01 -6.063268029941620840e-01 -1.441813459472312431e+00 -2.280830754808794159e-01 -1.134243701380847291e+00 4.206576736701257424e-01 5.997941440870485641e-01 -2.555337154713107073e-01 -5.386846784177744540e-01 2.969001942010606743e-01 1.108080155631954389e+00 2.620113527708154977e-01 -9.048123394032384081e-02 9.301341059777811227e-01 -8.722122940053895768e-01 -1.371602288619166332e+00 8.327797990720542387e-01 9.741668186837104670e-01 7.417930862506147971e-01 9.569409417371271820e-01 -3.656052128234971166e-01 -4.564335456903246269e-01 -5.019605835524310056e-01 -5.053899209462863196e-01 -5.925282065589067004e-01 -7.438098595687585302e-02 -4.350717922017140887e-02 -1.263264743237602294e+00 2.687075338388595358e-01 -4.886659233363957466e-01 -1.819194838985970675e+00 -4.965550962703484394e-01 1.461990448625124062e+00 1.880576841590129167e-01 -1.047925083455407247e+00 2.973069427208597237e-01 -9.830525512022022516e-01 -1.686453410857729207e-01 3.072298582538074974e-01 -7.249168793336943084e-01 7.189997425229138761e-01 1.179755312623998131e+00 -3.832944025593837956e-01 -1.257939988594721337e+00 9.278813053896147744e-01 2.254034717682717182e-01 8.215929292260014671e-01 -1.189711138277384922e-01 5.025478235140118377e-01 2.287998990416882927e-01 -3.959802255473001686e-01 5.760443499840933734e-01 1.737555628810430797e+00 -1.087568408847803925e+00 -8.258259934674496705e-01 7.286917729921578435e-02 -3.037850942409963673e-01 -8.946544250415318089e-01 1.324823123518487744e+00 1.982796704114488273e+00
-1.415243165203620701e-01 -1.824807557182691609e+00 -1.256922345964275989e+00 -8.620749484689571585e-01 2.939655370550518509e-01 -4.666480243215354040e-01 3.519007187638716894e-01 -2.519506261085299736e-01 9.370190060177167046e-01 8.522893298447152821e-01 8.332749935405326935e-01 -3.312146511855214998e-02 1.043353662038196995e-02 -1.373956390671808303e-01 -1.673788156695086866e-03 -1.163758422987553331e-01 2.183504215817187732e-01 -4.411704488955400100e-02 -7.550198693432448593e-02 4.745048013556811273e-01 -1.369467244555695462e-01 -1.027196849785244892e-01 4.458987076054666820e-01 2.186996288128129518e+00 1.605381386039127778e-01 -5.819702285456153090e-01 1.695863134200083389e+00 -3.353767015577102217e+00 1.425567172829417029e+00 -3.287978142157927525e-02 8.227458118826252997e-01 -1.630337027523787841e+00 7.790020911717995267e-01 8.097278023665292757e-02 -2.477273320590870354e-01 -7.540839877932649371e-02 -9.518635272181694695e-01 -8.965683542333042766e-01 4.628499907346383391e-01 1.657219967936648941e-01 6.658591539855303054e-01 -4.167809643265545094e-02 1.256617927350216490e+00 -2.540090512978542270e-01 7.763312292099334710e-01 1.384889235525723850e+00 -9.072692855822519498e-01 4.569354250270171169e-01 -2.892347072419658716e-01 -6.132970636589860636e-01 -2.804321241996452940e+00 1.124677654966408508e-01 -6.891785454196210914e-01 -2.905433987500424253e-01 9.885737381264526891e-02 1.022468591075318178e+00 -3.372721702287989620e-01 3.716442199240277411e-01 1.328104365370368356e+00 -9.292604451242556518e-01 9.712568441280307052e-01 5.268123524694561244e-01 -2.757682973348903333e-01 -8.421005622450972172e-01 -7.896680555177811034e-02 -1.822850433457843256e-01 -1.192327492852273796e+00 4.092023806542435249e-01 -1.218180963560156815e+00 -4.399800281327906903e-01 1.592284186545725802e-02 -9.291462881439834787e-01 -5.806214278282539887e-01 -1.088862187957556488e-01 -1.946633623958501230e-02 -2.148979442594297490e-02 4.325361702660263652e-01 -1.863633271770435140e-01 -5.877608670809589819e-01 2.119432325087784452e-01 1.404686215631592849e-01 1.268977220236903625e+00 -2.791503264306149368e-01 -4.049693164127953438e+00 -5.052371974186248282e-01 2.828582685628106219e+00 1.592402457291052509e-01 -1.920586292072408385e+00 1.310826037919335496e+00 -1.657413829114859238e+00 -2.315293821555861609e-01 4.002760247058349541e-01 1.345624890739005819e+00 2.253427937337125764e-01 -1.395450813083438379e-01 4.615994061579616892e-01 -7.400899875179037801e-01 5.144021517402151966e-01 1.128863410909725640e-01 4.802352760770973727e-01 1.696424148909439489e-01 3.506681319093100657e-01 1.472839475516046548e+00 -1.335991481421793525e-01 6.458348883603802770e-01 -1.254916371279401366e+00 5.346321056181081444e-01 -2.668619959911241457e-01 -1.616215500531726468e+00 2.222965507105906791e-01 -1.329818262736348400e+00 1.701346783018208297e+00 1.004240498117245250e+00 3.311966534634064874e-01 -7.042878902454803303e-01 -2.620396349055675866e-01 1.208229251671825155e+00 1.490768292066378509e+00 7.993302611903772836e-02 -1.525548632943301841e-01 -1.539367798203831850e+00 9.514583213602659795e-01 1.727269673511392156e+00 -8.244653656755557281e-01 3.054043750107145461e-01 -1.283289008862752503e-02 2.547566766745113398e+00 -2.019556280203429921e+00 5.474192300705003067e-01 9.092706322814401998e-02 1.090989004490917846e+00 8.291473445286151600e-01 1.150192768498529139e+00 -1.392477589390040071e+00 -1.405246716120317207e-01 2.822390954999913770e+00 2.574296469409680932e-01 -1.327577803443346749e+00 -8.422039205921005856e-01 -8.661192937385137069e-01 9.072055222239016059e-01 1.126515479504665906e+00 2.513416860362847061e+00 1.204408078156494311e+00 -1.082785128530268537e+00 1.250761468573995394e+00 1.570748626483547405e-01 -3.215071940973218134e-01 -1.380984244047400500e+00 3.003305600361799027e-02 3.795071676057557020e-01 1.146990202403322945e+00 -9.762638104204238720e-01 -1.537227611934042004e+00 -5.746626391462931194e-01 9.194779118238048665e-02 -2.075049942352192311e-01 1.711439391359668993e-01 -3.393537353465567730e-01 2.722541135367783638e-01 -1.091033741685889513e+00 4.087195274809296563e-01 -5.501132319607999512e-03 -7.296040003930723827e-01 -4.600618864687087139e-01 -4.463918451914177243e-01 -4.305913878363424874e-01 9.097560565579132508e-01 2.528320002715330958e-02 1.508368521632953985e-01 -1.472582879420750057e+00 -4.001793512270457875e-01 -2.201167694521481422e-01 -1.906772269018197186e+00 3.739052480423037117e-02 5.951383904862137669e-02 9.920241585662144257e-02 5.434751578241558967e-01 -2.975658528089998089e+00 6.039459614686633060e-01 6.428611504463501714e-01 -8.657840218865429094e-01 1.085302238523209395e+00 1.379787138416437076e+00 -1.919249832650211207e+00 2.534163605975756184e+00 2.723415310441941461e-02 9.203109492474134679e-02 -7.569481967127093813e-02 -5.881167077582041269e-01 1.433441433365045814e-01 2.438506227155157746e-01
2.141908908906261233e-01 1.853273268700408982e+00 4.880020645006680202e-01 -1.295327428075160547e+00 -3.906842672598031529e-01 1.959874805228823125e-01 1.183401651124497411e-01 9.334441441850455101e-02 1.239509292707696497e+00 1.105172752179434337e+00 2.385469511185409341e-01 3.062194661342713786e+00 -1.096889172020847070e-01 5.497321944725938048e-01 1.461543590896040301e-01 2.827529561774062561e-01 6.165644215538065298e-01 1.926260202524320009e-01 -4.964224273473291649e-01 7.153333494177722685e-01 -9.811586766150723338e-02 5.433548301963012639e-01 3.163963552372934251e-01 7.351082180364716390e-01 6.020510584402696264e-01 6.838162526706145217e-01 8.516979761180795139e-01 -5.076900298325834893e-01 3.272870339993964039e-01 1.964120724986067934e+00 -1.833227405808720845e-01 -8.758154379728126659e-02 -1.622623203825298774e-02 1.507977713952742549e-01 -2.923796806264043480e-01 -7.243466086529647130e-02 1.091225031760940212e+00 8.512547179334185588e-01 -1.034865936288762667e+00 -1.570679720918878308e+00 9.031426650115981225e-01 1.737362281852852464e+00 -1.164354918920507548e-01 5.110823433409452665e-01 7.887727973977177731e-01 1.591086052473498214e-01 -1.197542718500569231e-01 2.317453548209661707e-01 9.445199423746172274e-01 6.560884477596121700e-01 2.747871643693068355e-01 -5.348984719054100667e-01 -4.166956037016662506e-01 6.423824110380912389e-01 -5.170539875387025752e-02 1.678683537110366997e-01 -2.403631783902604735e-01 -3.309883941075043856e-02 -1.668887634073487891e-01 -1.490965752789011889e+00 2.989689038030221013e-01 8.803976580232918403e-01 1.415163461005682910e+00 -4.200802039005501198e-01 7.188804433363231612e-03 -5.204000211901971262e-01 4.293742276007365423e-04 1.294933020850526306e+00 1.443653855113729290e-01 8.671883584321450344e-01 5.124491417804216686e-01 -7.218932620183742266e-01 6.631594956682801412e-02 5.558725030376003400e-03 7.068857328776227966e-01 6.301290476015667386e-01 6.083590029312616054e-02 9.094146140583602156e-01 7.367866341788533724e-01 -1.843090157527741413e-01 3.131135707235172538e-01 4.985523292044816146e-02 -7.891846881238354094e-02 -4.161227619177773618e-02 5.467013780684276680e-01 -1.047733793380356548e+00 -3.654823140924832320e-02 -1.293012921011171545e-01 5.419834037711381836e-01 -2.656227242683483758e-01 1.400589419857586782e+00 3.000271698633841244e-02 4.289942185537941599e-01 -2.072760632099164280e+00 -5.681613476977228627e-01 1.107866239849101930e+00 -1.757791239115274184e-01 -6.267696442136437840e-01 -1.716986289315512337e+00 -8.285919862462095553e-01 1.292287869920252623e-02 -8.378237892499412753e-01 2.152661262318394664e-01 -3.690078107444960120e-01 9.899209961819185888e-02 -1.070998163206838605e+00 -1.706127492232584197e-01 -6.216125254967483915e-01 5.027216300875795296e-01 -3.076890572780560107e-01 2.739114466332540632e-01 1.763954687608714211e+00 -1.240677087762644293e+00 -8.742892311374604875e-01 8.572654428991971498e-01 -3.032302501792224492e-01 -2.437966295491708069e-01 -3.347864276944014228e-01 -7.302601459193222011e-01 -1.210137524436647016e+00 -9.605332870712814108e-02 5.694916364723374702e-01 -1.502471953647447789e+00 2.059922085583586249e+00 -8.348402811439059601e-01 1.866067078021015124e+00 1.076058094224313123e-02 3.333435246014102016e-01 -5.622298127092505426e-01 -8.871087514896597304e-01 1.499719330605116530e-01 -7.464899775019983030e-01 3.401600332973088170e-01 -1.862410969328510912e+00 1.101374718592537105e+00 1.188343311396644619e-01 -5.746415561003869188e-01 3.107173025790628818e-01 3.384512781376474710e-01 -3.963396657689682856e-01 -3.153242052198712009e-01 -2.177699179104152449e+00 -8.550100712078715359e-01 1.690850511480739504e+00 -1.127577859330082921e+00 6.420538240543345321e-01 -1.428144960856917001e+00 1.050449906757826013e-01 -9.440000653158096000e-01 -6.885784499422437088e-01 5.483777373282819889e-01 -3.693204568886651606e-01 -9.748183362242736349e-02 -5.058018116724040114e-01 6.099659424058152535e-01 6.171213224981078049e-01 -2.140340535979096959e-01 3.945614908240062217e-03 -1.529569838284425276e-01 2.441231596504001289e-01 -2.092219769249902550e-01 -2.308788930562868380e-01 -4.210659648518202958e-01 -7.507657220558905387e-01 7.452342507190029552e-02 -2.426190643022178572e-01 -4.430859207492080509e-01 6.425886135114659004e-01 4.956572670471257047e-02 3.897314164289718552e-01 9.641523718782921692e-01 -2.224533880033071342e-01 -1.138326613197793158e+00 -7.815911920532004897e-01 -9.801785720907525423e-01 -3.098575256825976121e-01 -2.058846336021740608e+00 2.508777047601599364e+00 1.375529905805291386e-01 2.858413652923403880e-01 -2.025227105331550703e-01 -4.498432940724430562e-01 -1.239492323426845566e+00 3.016562208251076793e-01 5.363732566775764043e-01 -1.328612415354643306e-01 -1.659405919842674049e+00 1.506122405913002060e+00 -4.393932509697784816e+00 -1.105160925104901493e+00 -4.703391000170061287e-01 -1.126562273582164986e+00
4.105280414431712599e-02 -1.987428803566257729e+00 -1.131157863369072425e+00 -2.587398811109401509e-01 -5.833833068419589513e-02 -3.662119931690885899e-01 5.102590761093419580e-01 -9.651252773137658503e-02 9.616820559628502796e-01 8.453324389163197061e-01 8.787737492678868723e-01 -7.679113805839042628e-02 1.799509958977846547e-01 -1.129058814749831496e-01 2.927458057162866424e-03 -2.370978773779674753e-01 2.175389814246481701e-01 -1.032555028769196505e-02 -8.516830637197556064e-02 6.381879133440322427e-01 -1.856166788195869333e-01 -5.676543261547116748e-01 7.816163888641614044e-01 2.082927288211611661e+00 -5.479555621895273454e-01 4.580703099615259788e-01 4.223777416836879128e-01 -1.684105479452669085e+00 1.255900589568775816e+00 -5.494252047553751517e-01 6.254336990120789030e-01 -1.899238422540857396e+00 7.629244688961533960e-01 2.550554902836835169e-01 -9.237819385124494687e-02 -6.607632275238257968e-02 -1.285158715080185088e+00 -1.038363150806023372e+00 4.575648310804103502e-01 3.544342838170320142e-01 7.758288356526089613e-01 -2.369724075437942556e-01 1.386806250041287436e+00 -7.886704674919779723e-02 6.071228165322769543e-01 1.715548014208207572e+00 -9.351369585051194644e-01 7.940085918712874724e-01 -7.729692547188512508e-01 -1.368632150249559309e+00 -4.121788953596856153e+00 2.870173878773977783e-01 -7.479873879819662896e-01 -2.092158062774080174e-01 -2.029006626975701222e-01 6.096687228806018100e-01 -1.512790819066925641e-01 7.083013822771254686e-01 1.550012679503907087e+00 -1.405110447652875072e+00 8.491099036779423681e-01 2.841866032990240654e-01 5.587727074012747985e-02 -1.269295522808023158e+00 -1.108191741509067657e-01 -5.212145466710589314e-01 -1.120366943409549787e+00 -4.453124960851495007e-01 -8.637600494795532047e-01 -2.379823368647617787e-01 -2.981456365714187928e-01 -5.280619086048689015e-01 -2.651064467539637759e-01 2.804410202165764088e-01 3.792937660435349856e-01 -5.178510295180811795e-02 4.006076970133827797e-01 -1.192292525849307644e-01 -6.243687480835027337e-01 3.207332920463767945e-01 1.313453191127493813e-01 7.356388937285481822e-01 -8.310113943190974850e-02 -2.479489611514174907e+00 -9.108338630022858595e-01 2.196530452863393545e+00 1.614689293696374373e+00 -1.929169662859367973e+00 6.481164853039305118e-01 -1.705164356989115948e+00 -3.550477490308375783e-01 6.059915311421912865e-01 1.601521131755776040e+00 1.728480663099415393e-01 1.592469305973193971e-01 -3.748827814634642097e-01 -5.448990347537683299e-01 9.489530384418578546e-01 -1.955467934413807063e-01 1.636620289424450814e-01 2.301085905497647979e-02 1.773546959275377755e-01 7.456214588547914746e-01 -2.137481469265971046e-01 5.093653606511742149e-01 -4.652781405582678276e-01 1.685255276785501688e-01 -2.308048452852994037e-01 -1.798601845341986527e+00 3.700809892031819426e-01 -1.575839924959565153e+00 1.791617186499470771e+00 7.912354000036816437e-01 1.648195395847555644e-01 -1.090394051219859106e+00 -4.908153655775586710e-01 1.567424704319222650e+00 1.507483033704896114e+00 -7.859245293178608593e-02 -1.931885776236837438e-01 -2.072574484230431224e+00 8.845777575396588377e-01 1.716625306431948328e+00 -2.681079525821140619e-01 8.132913513452992224e-03 4.254316980162877182e-01 2.838562165430558171e+00 -1.529351808736517659e+00 -6.549998426819705344e-01 -1.192040557739697804e-01 1.363928059909329971e+00 1.078860596667934546e+00 1.461146098347614553e+00 -1.507962801554418864e+00 -2.035892041236268546e-01 1.514488261372686217e+00 -5.013707724876906857e-01 -4.439318136886130639e-02 -8.810805430223981327e-01 -9.046719571707414476e-01 9.171248382124264076e-01 2.618658797540630800e+00 3.586501730893761231e+00 2.133582134214597748e+00 -1.509147051669585959e+00 1.816888045231459303e+00 -2.516002875920456461e+00 -3.853014056855222913e-01 -6.122850774554911002e-01 1.745779045155090642e-03 3.620807446127481399e-01 1.056876636214776788e+00 -1.018199531389639700e+00 -1.504965923711955256e+00 -7.217487660208222744e-01 1.950120039842492825e-01 -3.509093013856511012e-02 2.559332649022637574e-01 -3.315679207596073930e-01 3.061695353109180062e-01 -5.139393531715437113e-01 8.962886182095740617e-01 -2.532541754102878295e-01 -6.975803963235353011e-01 -5.761338243740364851e-01 -8.946456832907904166e-01 -6.022768012976549290e-01 1.029774123592112955e+00 7.497012853479462224e-01 -6.293649157426270402e-02 -1.605120676178776185e+00 -4.905006625508620544e-01 -1.045492819866722933e-01 -1.736956561774317231e+00 -1.483973894857650022e-01 -8.684672251435735998e-03 1.689271339920306036e-01 1.901490194687760205e-01 -2.456408818453265308e+00 1.234664305914338345e-01 5.719089876626980429e-01 -8.285935289081050037e-01 4.899895272427960968e-01 2.248115009768777650e+00 -2.232998980074703876e+00 3.767714624222123998e+00 -2.181138800910644715e-01 4.888232748497439717e-02 -7.337825572475438485e-02 -6.496740595978259813e-01 3.644075929719017837e-02 8.179342494303377675e-01
1.107410640369276500e+00 -3.200586345773802077e-01 -5.797374825620914968e-02 7.016365686676246938e-01 1.766736107006429801e+00 -6.898917694360069408e-01 5.942647296326883932e-01 -1.309495749144721222e+00 -1.132511806292752388e+00 1.821673382431522104e+00 -3.741037372062005484e-01 1.909595854507724733e+00 -8.169896261296161200e-01 -3.962387242589346936e+00 1.105774904539338771e-01 1.134222618334941091e+00 2.164326871572706423e+00 2.130138912863682510e+00 4.189273212439263983e-01 1.701113841071976995e-01 -3.003351880218665948e-01 9.192634818203204716e-01 -1.547999505730185965e-01 6.164687765162809585e-01 5.339749316505946197e-01 4.992033325244128461e-01 4.039542448855092949e-01 1.432816655297339370e+00 5.726165552521335078e-01 -6.865153967672328328e-01 -1.001163916076843741e+00 6.053204732176176162e-01 -5.871052357753410167e-01 1.154937996489307173e+00 3.944277934597233415e-01 6.869488847598883563e-01 1.691079853882548001e+00 -7.343260884554168033e-01 -3.544790210120035701e-01 -9.089826687276000849e-02 1.991525085119631999e-01 1.778226367025277921e-01 -6.188017955230170619e-01 -1.451806823231824639e+00 -3.278475344881207620e-01 1.202638644962274045e-01 -3.559692324031257099e-02 -3.045579678506777355e-01 -2.401328075471884649e-01 7.495588462329218216e-02 -5.336062354575530353e-01 -3.047991373270187224e-02 -2.764141584485029293e-02 -5.829950702649067118e-01 -1.980396836425611040e+00 -6.304026129777147158e-01 -4.717737755798876997e-01 -1.277560076803231581e+00 2.860485962069788668e-01 4.450795541389183096e-01 -2.060795746437111275e-01 -4.136545028848628847e-02 7.296225123358192344e-02 -3.177369284245450815e-02 -3.892732458459870482e-01 -6.377935061193978905e-01 -7.139259275483792466e-01 -1.854870952203589163e-01 5.411200273302499975e-01 4.694494983238932106e-01 2.451896532408718854e-01 -4.123165008007705357e-01 3.327976794006937578e+00 -7.688297786324010952e-01 4.938097751609893393e+00 -9.944821331864915626e-02 -3.854387025942281886e-01 3.654823140924832736e-01 -2.441131323480789206e+00 -2.781841058633553132e+00 3.490380525063228601e-01 1.312887548432451201e-01 1.095583051615929726e+00 1.521877097631841869e-01 6.465861647035235638e-02 -6.492313156337968794e-01 1.743778726897166342e-01 -1.130108853280083814e+00 6.990027305912523969e-01 -3.299445262248342642e-02 1.635941518190399402e-02 6.013887422664375704e-01 -7.354938835103644879e-01 5.139696921888232684e-01 7.684471984822992541e-01 -9.001535004786124228e-01 -7.621423393150985603e-01 -3.754787631757866562e-02 -8.335752983895372559e-01 2.914367542537678268e+00 -2.974005308758577715e-01 -2.046637195559556144e+00 3.630459367387439684e-01 -1.540630724075673086e-01 2.037064464276902853e-01 5.368926195157520675e-01 2.253896906553379598e+00 8.717057866830101309e-01 -8.532684059277713118e-01 -1.644122768443246896e-01 4.888289312766943562e-01 -1.264124005913435655e-01 -4.342341267924187398e-01 4.677916510067857414e-02 -3.037799520346777804e-01 -1.129639369843198127e+00 -2.191265862034439849e+00 -2.636909001985873857e+00 4.530041568744059610e+00 -3.556848169716454677e+00 7.347184387975239095e-02 6.223509463240951833e-02 -1.791806419691994279e+00 -9.280556261838144305e-01 1.329030476728343180e+00 1.600222210439704806e+00 -5.761600496262612170e-01 -9.814039598564684441e-01 8.335321038564613705e-01 7.128290949406278498e-01 -1.274701524310737841e-02 3.959709695759267012e-01 -6.671174518716848079e-01 6.079625388240997852e-01 -1.487024251645826523e+00 -5.795693324154743697e-01 3.879825520600255762e-01 -1.508101126904388412e-01 -3.467852519181565535e-02 4.395249428735970715e-02 -3.828336608732397783e-01 9.089939815815010205e-01 -2.672209219921604095e-01 -2.368639069904724670e-01 1.222934933301676186e-01 -1.336424969414449215e+00 -9.961883172429937261e-01 1.817384268141201686e-01 -1.465428013549089137e+00 7.682445955533476756e-01 2.534876315771510402e-01 -1.084218775651886318e-01 7.146808034359456441e-01 -2.484642102245383788e-01 1.232648561037458373e-01 4.933201342753348873e-01 2.798944036849122519e-01 -1.977908522788054124e-01 2.680030515732151897e-01 -3.220450688782444670e-01 2.490910451747722354e-01 -1.477162528368069827e+00 -9.245198451191645184e-01 1.296905571194330309e-01 5.154028250898092800e-01 5.368293703780336878e-01 3.254312117390238956e-01 -9.098774126270316176e-02 9.168708132202890715e-01 2.156955004594401926e-01 -2.933674984602019919e-01 1.134165025624173095e-01 -2.345637981041753251e-01 1.267754403574347377e-01 -4.460298338665903001e-02 5.361212885679663698e-01 -1.552789470915935555e+00 1.157838200852981725e+00 1.756449123266126955e-01 8.680095687812208749e-02 9.207140982227896009e-01 -1.854898205897077546e+00 1.335712773839327072e+00 -4.317144456963185384e+00 1.790382028541749548e+00 2.828556460375881265e+00 -3.095875598508726068e-01 -3.748668406238765960e-01 1.036001849664535124e+00 -1.833338991685834030e+00 3.496602594708700384e-01 1.482081562932415775e-01
-2.368880753601697309e-01 8.706938004795153341e-02 3.180351763910222590e-02 5.796696054386863972e-01 1.286009236005276890e-01 -3.046474422406208471e-01 2.339532639479712905e+00 -7.160727986863829608e-02 1.159453367857645079e+00 1.561070994191995354e-01 -4.069799190833568447e-01 -4.764362140489366015e-01 -1.842385161041465436e+00 3.849614030037383117e+00 -6.513663596972678604e-01 -3.979221797635086766e+00 1.205016401163981454e+00 9.994495044902319825e-02 -1.180594006474557089e-01 -1.288073317621551528e+00 1.230900210889143837e-01 -1.190729295128461762e-01 -2.223520865388312895e-01 -8.541338392511870214e-01 1.452557071133704136e+00 8.683643810172021055e-03 6.685639545090988900e-01 -9.859974927608483597e-02 4.576285944387606386e-01 1.076626308022515133e+00 -9.183106309894890906e-02 8.066954433004674963e-01 -5.681886013912113009e-01 -6.720349437741349706e-03 -2.779197964585807257e-01 -8.766793286343327329e-02 1.731895088094947133e-01 -6.699626346277505473e-02 3.182048691995351120e-01 1.793113054317543031e-01 8.019116487623002831e-02 2.179359597524418990e-01 -2.362624745394522829e+00 -2.895769210724668419e+00 -6.762988098314314023e+00 -2.938193441294148389e+00 1.744786599335606536e-01 1.738939910751390316e-01 4.456097156103629997e-01 2.287351072420743259e-01 1.192297668055626092e+00 -5.020593139137474736e-01 -1.087039790038254905e+00 5.381190357227314536e-01 -9.287667933176728674e-01 -3.183046280021153973e-01 -4.744250971577432252e-02 3.560892000765378818e+00 -1.475530906303186951e+00 5.248948237332606848e-01 -3.258307611699769180e-02 -5.459788980806683234e-02 4.397028632122197411e-01 -3.281650657282925376e+00 1.602738806212013811e+00 -1.454861808005688317e+00 2.321937552119456294e-01 1.092747639051869335e+00 8.022345793191065777e-01 -1.404757692299420935e+00 -1.281483580224302088e+00 9.550753492847493531e-01 6.024079275587785887e-01 1.235958599244723066e+00 2.269193941909866674e-01 -1.286004093798958359e-01 2.694901776405461136e-01 4.867129133766022187e-01 3.718463086323475775e-01 -2.263943749258604532e-01 -2.880478860236395655e-01 7.155431514355700129e-01 -1.981744608701708765e-01 -2.351155568421580688e-01 2.702018589950364591e-01 -3.771978541701483501e+00 1.835787710334737755e+00 -1.589434890024605140e+00 2.229146439100830324e-01 2.269975557270289060e-02 3.248593983963987131e-01 -4.541658327038344822e-01 1.018015954624067021e+00 1.500293715050900811e+00 -2.112786023421030723e+00 -1.735197412992733668e+00 -3.355541590977641486e-01 -4.522056236551949548e-02 -1.113920159347956407e-01 -1.991818190879790507e-01 -3.646369353737100583e-01 8.815875645654093207e-01 -3.300283441878270052e-01 2.154162786563417475e-01 -3.700851029682368232e-01 -1.399888537136365629e-01 5.145193940442785996e-01 8.973124314876015362e-01 8.191760922562728586e-01 7.651289327449249944e-01 -3.076170663895959681e-02 -1.250837059006878471e+00 3.800167602519261556e-01 7.709205997215323736e-01 6.209059863485765635e-02 -1.394605434364664998e+00 -2.316585543783086898e+00 -1.982886178504431399e-02 -5.328678146302061602e-01 -1.363878180508039772e+00 -3.315149560345260760e-01 4.936050125053837445e-01 -1.178850798532561292e-02 -7.081424881018816286e-01 -8.797080881559714294e-02 -4.589208308866176700e-01 -1.937259896060376629e+00 3.234800529735050389e+00 -2.202024386094155517e+00 -1.357537325896609193e-01 2.969300189977084337e-01 6.738881949313482167e-01 -9.102959882213633724e-01 2.133691663209183742e-01 -6.915537305181693739e-01 2.826002326497446537e-01 -7.265880963872302090e-01 -2.093222499482024490e-01 4.340104408175608164e+00 -3.131096626467151811e+00 7.756878877774169290e+00 4.580044897206481669e-01 5.069351539450172028e-01 1.974447817935655325e-01 -6.711941930410484369e-01 -3.247138739575831101e-01 3.923775958005087938e-01 1.025762174222363404e-01 1.544903897526406222e-01 7.676316445601738536e-01 1.996338190233815091e-01 6.875890894465505054e-01 -6.061324275953200447e-01 3.555527136913212705e-02 4.409179665652981917e-01 6.979259525881433002e-02 1.712730085145630354e-01 1.596912172232440100e-02 3.378121018922489865e-02 1.105043682800837868e+00 2.249870559005937576e+00 1.534228677209050970e-02 -2.982263692106204012e-01 1.285479588754463998e-01 8.053348155085735538e-01 4.788293968695999103e-01 6.229458995951538958e-01 -1.416483979588291975e+00 3.631564941745932806e-01 -4.367502083440958360e-01 -7.628653335234897304e-01 1.128775479181678199e+00 -3.157160413413463984e-01 8.304699199937518594e-01 -1.919549623278584138e-01 -8.165833918304490346e-01 -1.075447200113666790e+00 -1.416970946526660835e-01 5.544702233745258946e-01 -1.440072822633475802e+00 2.318132319443713396e-01 -1.125205759555325535e+00 5.592324206461550817e-01 9.087373854862043077e-01 6.693743662249058701e-01 -1.744681698326707275e+00 3.224996399168061689e+00 1.925746496113095008e+00 1.314328394642914954e+00 4.456853060432460212e-01 -8.818369615718600618e-03 3.994753831820332945e-01