1.388940000000000063e+00 1.674099999999999921e+00 1.427119999999999944e+00 4.325980000000000381e+00 4.824749999999999872e+00 2.050860000000000127e+00 1.780510000000000037e+00 4.927399999999999558e+00 4.534519999999999662e+00 4.349940000000000140e+00 2.018749999999999822e+00 4.895769999999999733e+00 7.243249999999999744e+00 1.754329999999999945e+00 1.546790000000000109e+00 1.009350000000000058e+01 4.738870000000000360e+00 1.587390000000000079e+00 7.845379999999999576e+00 4.620210000000000150e+00 4.357440000000000424e+00 1.051549999999999940e+01 2.022730000000000139e+00 4.601720000000000255e+00 1.744410000000000016e+00 7.798860000000000348e+00 2.025310000000000166e+00 4.504269999999999996e+00 1.056830000000000069e+01 1.744569999999999954e+00 1.594780000000000086e+00 1.103180000000000049e+01 4.829480000000000217e+00 4.603390000000000093e+00 7.767610000000000348e+00 4.766329999999999956e+00 7.639929999999999666e+00 7.463680000000000092e+00 1.975100000000000078e+00 1.073019999999999996e+01 1.044630000000000081e+01 1.791889999999999983e+00 7.615850000000000009e+00 1.051140000000000008e+01 4.243579999999999686e+00 1.078279999999999994e+01 7.921719999999999651e+00 4.971110000000000362e+00 2.169639999999999791e+00 1.744950000000000001e+00 7.591820000000000235e+00 4.798829999999999707e+00 4.618879999999999875e+00 7.608130000000000059e+00 1.507759999999999989e+00 3.926089999999999858e+00 1.061909999999999954e+01 4.213149999999999729e+00 1.615110000000000046e+00 1.075259999999999927e+01 7.777829999999999799e+00 1.909720000000000084e+00 7.669480000000000075e+00 1.103250000000000064e+01 4.757310000000000372e+00 7.339789999999999814e+00 7.271090000000000053e+00 4.448140000000000427e+00 1.097359999999999935e+01 1.018660000000000032e+01 1.570079999999999920e+00 1.066329999999999956e+01 2.059410000000000185e+00 7.841709999999999958e+00 7.953059999999999796e+00 4.689610000000000056e+00 1.018520000000000003e+01 7.611950000000000216e+00 1.639960000000000084e+00 9.957869999999999777e+00 1.104439999999999955e+01 4.728860000000000063e+00 7.430810000000000137e+00 1.011739999999999995e+01 7.858150000000000190e+00 7.714109999999999800e+00 7.718359999999999665e+00 1.070860000000000056e+01 1.082179999999999964e+01 8.170489999999999142e+00 7.613150000000000084e+00 1.011739999999999995e+01 1.078730000000000011e+01 1.079599999999999937e+01 7.317660000000000053e+00 1.074869999999999948e+01 4.490809999999999746e+00 1.702700000000000102e+00 1.672109999999999985e+00 1.240550000000000042e+00 4.702689999999999593e+00 2.000859999999999861e+00 4.863080000000000069e+00 4.891939999999999955e+00 4.707209999999999894e+00 1.549800000000000066e+00 1.809830000000000050e+00 5.054599999999999760e+00 9.961180000000000589e+00 1.472720000000000029e+00 1.493519999999999959e+00 6.915849999999999831e+00 4.933130000000000237e+00 1.610409999999999897e+00 1.042459999999999987e+01 5.091739999999999711e+00 4.371550000000000047e+00 7.216619999999999813e+00 1.533959999999999990e+00 4.797080000000000233e+00 4.875070000000000014e+00 7.322110000000000340e+00 1.772599999999999953e+00 1.509830000000000005e+00 1.063279999999999959e+01 1.874880000000000102e+00 4.808500000000000441e+00 1.040090000000000003e+01 4.831800000000000317e+00 1.809330000000000105e+00 7.543910000000000338e+00 5.011350000000000193e+00 1.075600000000000023e+01 7.761079999999999757e+00 1.741049999999999986e+00 7.289889999999999759e+00 1.051110000000000078e+01 1.745319999999999983e+00 1.045159999999999911e+01 1.090649999999999942e+01 4.776950000000000252e+00 7.586549999999999905e+00 7.238699999999999690e+00 4.445960000000000356e+00 5.055589999999999584e+00 1.301260000000000083e+00 7.497090000000000032e+00 2.079099999999999948e+00 4.811740000000000350e+00 7.590090000000000003e+00 4.140550000000000175e+00 4.393340000000000245e+00 1.059539999999999971e+01 1.389920000000000044e+00 1.219109999999999916e+00 1.011909999999999954e+01 1.049699999999999989e+01 1.471789999999999932e+00 7.456959999999999589e+00 7.759019999999999584e+00 4.801599999999999646e+00 7.421540000000000248e+00 1.038449999999999918e+01 4.437920000000000087e+00 1.013569999999999993e+01 7.213709999999999845e+00 1.524850000000000039e+00 1.045359999999999978e+01 4.858640000000000292e+00 7.221799999999999997e+00 7.436560000000000059e+00 1.751619999999999955e+00 1.060679999999999978e+01 7.753280000000000172e+00 4.803740000000000343e+00 1.051980000000000004e+01 1.031569999999999965e+01 1.689550000000000107e+00 7.289310000000000400e+00 1.059210000000000029e+01 1.052970000000000006e+01 7.466479999999999784e+00 7.722290000000000099e+00 7.388950000000000351e+00 1.054139999999999944e+01 7.711190000000000211e+00 1.067939999999999934e+01 1.020369999999999955e+01 1.071160000000000068e+01 7.747679999999999900e+00 7.432210000000000427e+00 1.067029999999999923e+01
1.400579999999999936e+00 1.566789999999999905e+00 1.318119999999999958e+00 4.414419999999999789e+00 4.824499999999999567e+00 1.971629999999999994e+00 1.727670000000000039e+00 4.639859999999999651e+00 4.612720000000000375e+00 4.355109999999999815e+00 2.011080000000000201e+00 4.998960000000000292e+00 7.453369999999999607e+00 1.514669999999999961e+00 1.519609999999999905e+00 9.916840000000000543e+00 4.304990000000000094e+00 1.655080000000000107e+00 7.830739999999999590e+00 4.409390000000000143e+00 4.399169999999999803e+00 1.062540000000000084e+01 2.028290000000000148e+00 4.374069999999999681e+00 1.915389999999999926e+00 7.902849999999999930e+00 2.206449999999999800e+00 4.420600000000000307e+00 1.052940000000000076e+01 1.603159999999999918e+00 1.330610000000000070e+00 1.127040000000000042e+01 4.668479999999999741e+00 4.342060000000000031e+00 8.045889999999999986e+00 4.737809999999999633e+00 7.866719999999999935e+00 8.026070000000000704e+00 2.049799999999999844e+00 1.059939999999999927e+01 1.031290000000000084e+01 1.597409999999999997e+00 8.046699999999999520e+00 1.052860000000000085e+01 4.591370000000000395e+00 1.061870000000000047e+01 8.652329999999999188e+00 4.968880000000000408e+00 1.847350000000000048e+00 1.641229999999999967e+00 7.507469999999999644e+00 5.026309999999999611e+00 4.186440000000000161e+00 7.681969999999999743e+00 1.501819999999999933e+00 4.052690000000000126e+00 1.110169999999999924e+01 4.262470000000000425e+00 1.274350000000000094e+00 1.056470000000000020e+01 7.655529999999999724e+00 1.550040000000000084e+00 7.510329999999999728e+00 1.103229999999999933e+01 4.555460000000000065e+00 7.512199999999999989e+00 7.167119999999999713e+00 4.131129999999999747e+00 1.082499999999999929e+01 1.018329999999999913e+01 1.585550000000000015e+00 1.052979999999999983e+01 1.905059999999999976e+00 7.522090000000000387e+00 7.765419999999999767e+00 4.510939999999999728e+00 1.018549999999999933e+01 7.428630000000000067e+00 1.468699999999999894e+00 1.003819999999999979e+01 1.072560000000000002e+01 4.791339999999999932e+00 7.473200000000000287e+00 1.021899999999999942e+01 7.663759999999999906e+00 8.041230000000000544e+00 7.343029999999999724e+00 1.077890000000000015e+01 1.100159999999999982e+01 7.638119999999999798e+00 7.360689999999999955e+00 1.051079999999999970e+01 1.086069999999999958e+01 1.073520000000000074e+01 7.327560000000000073e+00 1.070960000000000001e+01 4.324379999999999669e+00 1.316990000000000105e+00 1.753339999999999899e+00 1.420819999999999972e+00 4.873910000000000409e+00 1.766440000000000010e+00 4.694960000000000022e+00 4.630259999999999820e+00 4.836009999999999920e+00 1.545900000000000052e+00 1.623469999999999969e+00 5.025830000000000020e+00 1.004039999999999999e+01 1.354980000000000073e+00 1.395860000000000101e+00 6.867169999999999774e+00 4.515209999999999724e+00 1.577469999999999928e+00 1.033290000000000042e+01 4.937890000000000335e+00 4.356080000000000396e+00 7.296979999999999578e+00 1.398570000000000091e+00 4.675839999999999996e+00 4.709629999999999761e+00 7.570680000000000298e+00 1.934299999999999908e+00 1.433650000000000091e+00 1.071790000000000020e+01 1.935619999999999896e+00 4.770470000000000432e+00 1.075990000000000002e+01 4.862589999999999968e+00 1.879350000000000076e+00 7.836179999999999701e+00 5.112359999999999793e+00 1.074039999999999928e+01 7.737409999999999677e+00 1.977770000000000028e+00 7.291290000000000049e+00 1.094050000000000011e+01 1.763149999999999995e+00 1.045470000000000077e+01 1.118159999999999954e+01 5.144499999999999851e+00 7.706170000000000186e+00 7.245009999999999728e+00 4.434969999999999857e+00 4.747469999999999857e+00 1.370740000000000069e+00 7.775699999999999612e+00 1.933380000000000098e+00 4.422100000000000364e+00 7.463309999999999889e+00 4.251509999999999678e+00 4.482389999999999652e+00 1.039690000000000047e+01 1.380449999999999955e+00 1.202749999999999986e+00 1.030390000000000050e+01 1.050569999999999915e+01 1.402779999999999916e+00 7.600539999999999630e+00 7.607359999999999900e+00 4.610450000000000159e+00 7.497130000000000294e+00 1.036999999999999922e+01 4.476429999999999687e+00 1.021829999999999927e+01 7.326360000000000205e+00 1.266550000000000065e+00 1.050719999999999921e+01 5.136969999999999814e+00 7.474070000000000213e+00 7.279869999999999841e+00 1.807029999999999914e+00 1.068159999999999954e+01 7.865669999999999717e+00 4.903400000000000425e+00 1.068459999999999965e+01 1.024489999999999945e+01 1.728350000000000053e+00 7.395970000000000155e+00 1.053340000000000032e+01 1.078209999999999980e+01 7.376420000000000421e+00 7.668999999999999595e+00 7.480839999999999712e+00 1.062310000000000088e+01 7.580680000000000085e+00 1.076829999999999998e+01 1.030610000000000070e+01 1.076179999999999914e+01 7.815299999999999692e+00 7.733740000000000059e+00 1.093929999999999936e+01
1.403880000000000017e+00 1.567749999999999977e+00 1.346510000000000096e+00 4.416360000000000063e+00 4.795010000000000439e+00 2.005879999999999885e+00 1.746909999999999963e+00 4.636860000000000426e+00 4.634669999999999845e+00 4.374480000000000146e+00 2.001679999999999904e+00 5.036279999999999646e+00 7.464240000000000208e+00 1.543420000000000014e+00 1.527959999999999985e+00 9.929779999999999163e+00 4.322219999999999729e+00 1.652859999999999996e+00 7.848250000000000171e+00 4.398299999999999876e+00 4.428300000000000125e+00 1.061630000000000074e+01 2.043229999999999880e+00 4.402580000000000382e+00 1.917969999999999953e+00 7.952840000000000131e+00 2.227069999999999883e+00 4.406159999999999854e+00 1.054330000000000034e+01 1.620090000000000030e+00 1.346759999999999957e+00 1.124319999999999986e+01 4.685319999999999929e+00 4.358189999999999564e+00 8.019410000000000593e+00 4.750829999999999664e+00 7.897369999999999557e+00 8.006410000000000693e+00 2.061069999999999958e+00 1.056760000000000055e+01 1.028720000000000034e+01 1.682120000000000060e+00 8.081120000000000303e+00 1.053790000000000049e+01 4.605010000000000048e+00 1.061139999999999972e+01 8.641519999999999868e+00 5.000810000000000421e+00 1.896079999999999988e+00 1.637629999999999919e+00 7.520690000000000097e+00 5.045350000000000001e+00 4.182019999999999627e+00 7.695640000000000036e+00 1.497360000000000024e+00 4.041509999999999714e+00 1.108200000000000074e+01 4.286850000000000271e+00 1.271849999999999925e+00 1.057440000000000069e+01 7.624100000000000321e+00 1.534520000000000106e+00 7.524560000000000137e+00 1.101789999999999914e+01 4.581109999999999793e+00 7.489939999999999820e+00 7.144339999999999691e+00 4.104199999999999626e+00 1.081339999999999968e+01 1.019059999999999988e+01 1.576160000000000005e+00 1.053240000000000087e+01 1.925529999999999964e+00 7.512150000000000105e+00 7.742130000000000400e+00 4.500490000000000101e+00 1.018410000000000082e+01 7.467450000000000365e+00 1.496779999999999999e+00 1.003279999999999994e+01 1.070880000000000010e+01 4.791590000000000238e+00 7.481679999999999886e+00 1.020030000000000037e+01 7.692829999999999835e+00 8.024810000000000443e+00 7.355850000000000222e+00 1.079599999999999937e+01 1.100510000000000055e+01 7.656920000000000393e+00 7.380749999999999922e+00 1.054020000000000046e+01 1.085570000000000057e+01 1.070379999999999932e+01 7.307959999999999567e+00 1.069089999999999918e+01 4.323409999999999975e+00 1.314210000000000100e+00 1.746259999999999923e+00 1.422190000000000065e+00 4.859709999999999752e+00 1.768909999999999982e+00 4.686399999999999899e+00 4.608629999999999782e+00 4.829189999999999650e+00 1.542419999999999902e+00 1.632390000000000008e+00 5.037959999999999994e+00 1.003209999999999980e+01 1.358179999999999943e+00 1.407059999999999977e+00 6.873339999999999783e+00 4.498269999999999769e+00 1.571690000000000031e+00 1.033239999999999981e+01 4.931180000000000341e+00 4.353010000000000268e+00 7.290740000000000443e+00 1.373960000000000070e+00 4.671820000000000306e+00 4.693730000000000402e+00 7.588519999999999932e+00 1.927179999999999893e+00 1.450360000000000094e+00 1.070180000000000042e+01 1.951040000000000108e+00 4.790930000000000355e+00 1.077379999999999960e+01 4.876319999999999766e+00 1.875439999999999996e+00 7.823389999999999844e+00 5.146020000000000039e+00 1.074029999999999951e+01 7.740210000000000257e+00 1.982839999999999936e+00 7.302190000000000403e+00 1.093609999999999971e+01 1.744869999999999921e+00 1.044159999999999933e+01 1.117639999999999922e+01 5.149460000000000370e+00 7.678589999999999804e+00 7.268309999999999604e+00 4.428639999999999688e+00 4.764639999999999986e+00 1.371459999999999901e+00 7.754920000000000258e+00 1.933999999999999941e+00 4.408249999999999780e+00 7.460200000000000387e+00 4.267360000000000042e+00 4.509579999999999700e+00 1.039329999999999998e+01 1.368840000000000057e+00 1.221940000000000026e+00 1.026430000000000042e+01 1.049740000000000073e+01 1.393329999999999957e+00 7.568249999999999922e+00 7.595049999999999635e+00 4.620420000000000194e+00 7.498980000000000423e+00 1.036330000000000062e+01 4.488129999999999953e+00 1.020560000000000045e+01 7.319720000000000226e+00 1.246750000000000025e+00 1.050929999999999964e+01 5.138519999999999754e+00 7.500230000000000175e+00 7.282799999999999940e+00 1.787749999999999950e+00 1.070309999999999917e+01 7.845650000000000013e+00 4.930550000000000210e+00 1.067900000000000027e+01 1.020570000000000022e+01 1.738850000000000007e+00 7.391779999999999795e+00 1.049799999999999933e+01 1.074339999999999939e+01 7.368879999999999875e+00 7.669769999999999754e+00 7.442199999999999704e+00 1.063189999999999991e+01 7.576870000000000438e+00 1.074349999999999916e+01 1.032929999999999993e+01 1.072439999999999927e+01 7.815929999999999822e+00 7.750750000000000028e+00 1.092149999999999999e+01
1.566599999999999993e+00 1.864500000000000046e+00 1.448380000000000001e+00 3.911230000000000206e+00 4.385189999999999699e+00 1.894109999999999960e+00 1.573250000000000037e+00 4.897890000000000299e+00 4.783689999999999998e+00 4.533109999999999751e+00 1.976159999999999917e+00 4.448669999999999902e+00 7.083569999999999922e+00 1.864069999999999894e+00 1.838529999999999998e+00 1.028589999999999982e+01 4.547180000000000000e+00 1.724350000000000049e+00 7.282300000000000217e+00 4.188769999999999882e+00 4.212559999999999860e+00 1.024610000000000021e+01 1.805120000000000058e+00 4.450980000000000381e+00 1.639629999999999921e+00 7.442029999999999923e+00 2.194809999999999928e+00 4.619139999999999802e+00 1.042309999999999981e+01 1.757989999999999942e+00 1.707999999999999963e+00 1.098070000000000057e+01 4.540300000000000225e+00 4.996240000000000236e+00 7.910059999999999647e+00 4.832080000000000375e+00 7.313369999999999926e+00 8.118560000000000443e+00 1.358510000000000106e+00 1.032269999999999932e+01 1.064000000000000057e+01 1.546489999999999920e+00 7.153299999999999770e+00 1.042270000000000074e+01 4.793309999999999960e+00 1.078049999999999997e+01 8.361029999999999518e+00 4.814689999999999692e+00 1.607539999999999969e+00 1.853080000000000060e+00 7.312509999999999621e+00 4.530439999999999579e+00 4.084240000000000315e+00 7.739320000000000199e+00 1.248340000000000005e+00 3.879220000000000113e+00 1.055569999999999986e+01 4.590779999999999639e+00 1.593029999999999946e+00 1.057479999999999976e+01 7.664620000000000211e+00 1.767139999999999933e+00 7.637410000000000032e+00 1.052340000000000053e+01 4.853749999999999787e+00 7.367680000000000007e+00 7.306919999999999860e+00 4.480749999999999567e+00 1.070180000000000042e+01 1.025450000000000017e+01 1.612789999999999946e+00 1.047320000000000029e+01 1.473619999999999930e+00 7.392789999999999750e+00 8.090350000000000819e+00 4.506099999999999994e+00 1.057179999999999964e+01 7.450359999999999872e+00 1.923789999999999889e+00 1.045010000000000083e+01 1.077490000000000059e+01 4.329010000000000247e+00 7.468029999999999724e+00 1.048700000000000010e+01 7.571349999999999802e+00 7.833420000000000272e+00 7.472339999999999982e+00 1.053049999999999997e+01 1.084070000000000000e+01 7.773970000000000269e+00 7.387199999999999989e+00 9.811999999999999389e+00 1.036909999999999954e+01 1.080269999999999975e+01 7.222599999999999909e+00 1.111819999999999986e+01 3.830090000000000217e+00 1.348549999999999915e+00 1.499390000000000001e+00 1.289039999999999964e+00 4.725789999999999935e+00 1.581930000000000058e+00 4.826609999999999623e+00 4.772170000000000023e+00 5.033050000000000246e+00 1.569320000000000048e+00 1.555390000000000050e+00 4.437660000000000160e+00 1.036209999999999987e+01 1.086880000000000068e+00 1.325029999999999930e+00 7.287440000000000140e+00 5.041909999999999670e+00 1.584610000000000074e+00 1.075839999999999996e+01 4.822639999999999816e+00 4.426910000000000345e+00 7.667279999999999873e+00 1.455610000000000070e+00 4.872860000000000191e+00 4.369080000000000297e+00 7.512279999999999625e+00 2.044160000000000199e+00 1.833420000000000050e+00 1.075939999999999941e+01 1.528370000000000006e+00 4.612870000000000026e+00 1.061100000000000065e+01 4.671879999999999811e+00 1.865930000000000089e+00 7.641829999999999679e+00 4.957650000000000112e+00 1.078410000000000046e+01 7.840320000000000178e+00 1.809790000000000010e+00 7.547310000000000407e+00 1.090900000000000070e+01 1.701880000000000059e+00 1.076699999999999946e+01 1.110190000000000055e+01 4.749830000000000219e+00 8.202099999999999724e+00 7.486790000000000056e+00 4.450129999999999697e+00 4.635799999999999699e+00 1.317509999999999959e+00 7.700230000000000352e+00 1.704820000000000002e+00 4.667250000000000121e+00 7.625040000000000262e+00 4.163739999999999775e+00 4.623179999999999623e+00 1.059370000000000012e+01 1.699710000000000054e+00 8.273629999999999596e-01 1.075109999999999921e+01 1.043260000000000076e+01 1.456919999999999993e+00 7.730850000000000222e+00 7.893970000000000375e+00 4.287729999999999819e+00 7.153019999999999712e+00 1.055869999999999997e+01 4.496540000000000425e+00 1.043989999999999974e+01 7.409519999999999662e+00 1.565390000000000059e+00 1.056600000000000072e+01 4.921829999999999927e+00 7.400780000000000136e+00 7.542959999999999887e+00 1.877820000000000045e+00 1.058799999999999919e+01 7.912480000000000402e+00 4.575160000000000338e+00 1.067520000000000024e+01 1.069319999999999915e+01 1.781760000000000010e+00 7.617639999999999745e+00 1.075290000000000035e+01 1.079969999999999963e+01 7.790479999999999627e+00 7.800320000000000142e+00 8.101850000000000662e+00 1.058510000000000062e+01 7.971099999999999852e+00 1.067919999999999980e+01 1.013620000000000054e+01 1.094159999999999933e+01 7.999520000000000408e+00 7.206839999999999691e+00 1.089579999999999949e+01
1.337879999999999958e+00 1.684819999999999984e+00 1.366489999999999982e+00 4.317719999999999558e+00 4.843230000000000146e+00 1.987870000000000026e+00 1.752510000000000012e+00 4.896690000000000431e+00 4.530450000000000088e+00 4.292489999999999917e+00 1.991049999999999986e+00 4.779729999999999812e+00 7.171170000000000044e+00 1.706090000000000106e+00 1.504720000000000057e+00 1.009980000000000011e+01 4.727780000000000094e+00 1.592300000000000049e+00 7.755429999999999602e+00 4.610260000000000247e+00 4.310340000000000060e+00 1.054080000000000084e+01 1.902919999999999945e+00 4.553289999999999615e+00 1.754860000000000086e+00 7.710410000000000430e+00 1.976239999999999997e+00 4.483520000000000394e+00 1.057489999999999952e+01 1.725530000000000008e+00 1.566880000000000051e+00 1.108500000000000085e+01 4.845699999999999896e+00 4.582910000000000039e+00 7.806799999999999962e+00 4.676309999999999967e+00 7.552920000000000300e+00 7.504800000000000360e+00 1.916390000000000038e+00 1.067200000000000060e+01 1.046000000000000085e+01 1.700139999999999985e+00 7.530199999999999783e+00 1.053470000000000084e+01 4.289229999999999876e+00 1.083169999999999966e+01 7.871749999999999581e+00 4.943159999999999776e+00 2.135369999999999990e+00 1.758510000000000018e+00 7.578000000000000291e+00 4.763930000000000220e+00 4.559800000000000075e+00 7.553899999999999615e+00 1.506369999999999987e+00 3.934600000000000097e+00 1.054410000000000025e+01 4.210530000000000328e+00 1.644260000000000055e+00 1.074549999999999983e+01 7.791830000000000034e+00 1.858680000000000110e+00 7.658929999999999794e+00 1.099699999999999989e+01 4.655890000000000306e+00 7.351549999999999585e+00 7.325199999999999712e+00 4.499329999999999607e+00 1.096589999999999954e+01 1.011439999999999984e+01 1.586470000000000047e+00 1.061260000000000048e+01 1.987479999999999913e+00 7.742239999999999789e+00 7.920600000000000307e+00 4.664839999999999876e+00 1.018730000000000047e+01 7.568349999999999689e+00 1.651189999999999936e+00 9.963359999999999772e+00 1.103769999999999918e+01 4.680920000000000414e+00 7.431899999999999729e+00 1.013509999999999955e+01 7.834900000000000198e+00 7.689059999999999562e+00 7.746640000000000192e+00 1.073060000000000080e+01 1.085570000000000057e+01 8.145889999999999631e+00 7.540460000000000385e+00 1.005669999999999931e+01 1.073090000000000011e+01 1.087700000000000067e+01 7.332639999999999603e+00 1.079219999999999935e+01 4.498890000000000278e+00 1.720429999999999904e+00 1.664420000000000011e+00 1.264410000000000034e+00 4.749590000000000423e+00 1.976250000000000062e+00 4.865940000000000154e+00 4.878849999999999909e+00 4.756789999999999630e+00 1.537130000000000107e+00 1.772089999999999943e+00 4.985759999999999970e+00 1.000009999999999977e+01 1.463030000000000053e+00 1.499400000000000066e+00 6.889910000000000423e+00 4.885290000000000354e+00 1.637510000000000021e+00 1.047899999999999920e+01 5.104610000000000092e+00 4.400780000000000136e+00 7.231309999999999683e+00 1.588640000000000052e+00 4.786699999999999733e+00 4.831559999999999633e+00 7.312599999999999767e+00 1.757849999999999913e+00 1.506099999999999994e+00 1.062330000000000041e+01 1.856200000000000072e+00 4.773380000000000400e+00 1.040220000000000056e+01 4.849750000000000227e+00 1.839979999999999949e+00 7.549240000000000173e+00 5.048230000000000217e+00 1.079149999999999920e+01 7.774250000000000327e+00 1.706120000000000081e+00 7.321970000000000312e+00 1.055380000000000074e+01 1.715330000000000021e+00 1.049890000000000079e+01 1.094589999999999996e+01 4.790440000000000254e+00 7.589310000000000223e+00 7.248750000000000249e+00 4.452309999999999768e+00 5.050930000000000142e+00 1.292559999999999931e+00 7.522800000000000153e+00 2.121280000000000054e+00 4.860809999999999853e+00 7.640299999999999869e+00 4.123470000000000191e+00 4.359119999999999884e+00 1.062379999999999924e+01 1.400789999999999980e+00 1.197149999999999936e+00 1.020790000000000042e+01 1.051800000000000068e+01 1.491179999999999950e+00 7.511820000000000164e+00 7.798700000000000188e+00 4.775280000000000413e+00 7.417539999999999800e+00 1.041080000000000005e+01 4.434549999999999770e+00 1.015629999999999988e+01 7.221960000000000157e+00 1.562149999999999928e+00 1.047250000000000014e+01 4.885130000000000194e+00 7.222059999999999924e+00 7.513779999999999681e+00 1.728569999999999940e+00 1.064080000000000048e+01 7.767640000000000100e+00 4.821189999999999642e+00 1.053219999999999956e+01 1.036899999999999977e+01 1.683049999999999935e+00 7.303689999999999571e+00 1.063979999999999926e+01 1.055320000000000036e+01 7.504150000000000098e+00 7.709259999999999557e+00 7.441959999999999908e+00 1.057179999999999964e+01 7.753339999999999677e+00 1.070809999999999995e+01 1.019319999999999915e+01 1.073409999999999975e+01 7.761090000000000266e+00 7.413380000000000081e+00 1.069689999999999941e+01
1.399319999999999897e+00 1.781749999999999945e+00 1.373580000000000023e+00 4.043829999999999814e+00 4.364390000000000214e+00 1.465999999999999970e+00 1.542450000000000099e+00 4.725679999999999659e+00 4.578660000000000174e+00 4.620589999999999975e+00 1.665200000000000014e+00 4.422519999999999563e+00 7.141250000000000320e+00 2.057729999999999837e+00 2.024500000000000188e+00 1.010679999999999978e+01 4.566460000000000186e+00 1.608849999999999891e+00 7.357569999999999943e+00 4.496430000000000149e+00 4.636020000000000252e+00 1.029400000000000048e+01 1.710110000000000019e+00 3.968420000000000059e+00 1.763470000000000093e+00 7.488319999999999865e+00 2.119969999999999910e+00 4.393130000000000202e+00 1.007489999999999952e+01 1.698439999999999950e+00 1.586179999999999923e+00 1.119469999999999921e+01 4.226490000000000080e+00 4.913359999999999950e+00 7.656930000000000014e+00 4.529499999999999638e+00 7.589690000000000047e+00 7.804719999999999658e+00 1.517209999999999948e+00 1.050629999999999953e+01 1.053509999999999991e+01 1.438890000000000002e+00 7.001019999999999577e+00 1.072949999999999982e+01 4.169039999999999857e+00 1.082189999999999941e+01 7.920670000000000321e+00 4.912519999999999776e+00 1.651010000000000089e+00 1.878530000000000033e+00 7.956959999999999589e+00 4.744550000000000267e+00 4.445289999999999964e+00 7.491660000000000430e+00 1.487179999999999946e+00 4.576730000000000409e+00 1.057699999999999996e+01 4.608279999999999710e+00 1.143820000000000059e+00 1.041530000000000022e+01 7.461330000000000240e+00 1.541069999999999940e+00 7.627439999999999998e+00 1.055310000000000059e+01 4.646779999999999688e+00 7.831500000000000128e+00 7.210429999999999673e+00 4.529469999999999885e+00 1.055400000000000027e+01 1.016740000000000066e+01 1.831220000000000070e+00 1.056959999999999944e+01 2.012890000000000068e+00 7.366369999999999862e+00 8.152929999999999566e+00 4.825770000000000337e+00 1.023220000000000063e+01 7.476239999999999775e+00 1.736720000000000041e+00 1.050960000000000072e+01 1.106799999999999962e+01 4.522400000000000198e+00 6.977809999999999846e+00 1.065799999999999947e+01 7.621229999999999727e+00 7.897450000000000081e+00 7.031430000000000291e+00 1.066450000000000031e+01 1.081700000000000017e+01 7.657790000000000319e+00 7.154230000000000089e+00 9.947010000000000574e+00 1.017179999999999929e+01 1.081579999999999941e+01 7.642330000000000290e+00 1.099210000000000065e+01 4.319659999999999833e+00 1.654409999999999936e+00 1.644700000000000051e+00 1.439999999999999947e+00 4.760650000000000048e+00 1.726860000000000062e+00 4.576290000000000191e+00 4.883770000000000167e+00 4.739679999999999893e+00 1.671070000000000055e+00 1.890400000000000080e+00 4.770599999999999952e+00 1.074859999999999971e+01 1.595720000000000027e+00 1.305849999999999955e+00 7.509800000000000253e+00 4.757900000000000240e+00 1.838920000000000110e+00 1.082230000000000025e+01 4.644339999999999691e+00 4.379760000000000097e+00 7.710270000000000401e+00 1.696409999999999973e+00 4.680939999999999657e+00 4.020809999999999995e+00 7.297810000000000130e+00 1.970690000000000053e+00 1.715670000000000028e+00 1.067619999999999969e+01 1.535500000000000087e+00 4.027540000000000120e+00 1.078330000000000055e+01 4.713510000000000311e+00 1.873220000000000107e+00 7.528940000000000410e+00 5.100259999999999572e+00 1.036490000000000045e+01 7.668980000000000352e+00 1.521039999999999948e+00 7.521110000000000184e+00 1.125329999999999941e+01 1.588789999999999925e+00 1.076500000000000057e+01 1.120780000000000065e+01 4.950020000000000309e+00 8.291969999999999175e+00 7.484460000000000335e+00 4.384199999999999875e+00 4.574670000000000236e+00 1.533470000000000111e+00 7.651869999999999727e+00 1.964120000000000088e+00 4.622580000000000133e+00 7.614659999999999762e+00 4.459660000000000402e+00 4.185410000000000075e+00 1.052389999999999937e+01 1.691670000000000007e+00 1.195710000000000051e+00 1.076660000000000039e+01 1.026019999999999932e+01 1.443570000000000020e+00 7.972059999999999924e+00 7.911489999999999689e+00 4.420919999999999739e+00 7.649449999999999861e+00 1.052590000000000003e+01 4.528909999999999769e+00 1.059379999999999988e+01 7.524930000000000341e+00 1.654760000000000009e+00 1.042670000000000030e+01 4.427039999999999864e+00 7.549450000000000216e+00 7.454559999999999853e+00 2.046069999999999833e+00 1.060009999999999941e+01 7.850240000000000329e+00 4.343840000000000146e+00 1.044369999999999976e+01 1.105949999999999989e+01 2.006759999999999877e+00 7.485929999999999751e+00 1.088809999999999967e+01 1.062149999999999928e+01 7.646580000000000155e+00 7.783760000000000012e+00 8.076409999999999201e+00 1.047170000000000023e+01 7.639230000000000409e+00 1.052139999999999986e+01 1.029809999999999981e+01 1.102130000000000010e+01 7.953350000000000364e+00 7.199160000000000004e+00 1.078880000000000017e+01