-1.051872455138768055e+04
-1.051841113869215042e+04
-1.051830626442813445e+04
-1.051877600902347331e+04
-1.051932993201553836e+04
-1.051899676534852551e+04
-1.051961706418002177e+04
-1.051841009757610118e+04
-1.051848685608269261e+04
-1.051819855346658005e+04
-1.051831439530241914e+04
-1.051858051777721812e+04
-1.051821569732362696e+04
-1.051921461839200856e+04
-1.051823995432380434e+04
-1.051953880254008254e+04
-1.051866789838740624e+04
-1.051886760396467071e+04
-1.051897183791383395e+04
-1.051841720409473237e+04
-1.051817139105689785e+04
-1.051895644563657697e+04
-1.051849801652437054e+04
-1.051902948638002817e+04
-1.051823912274408394e+04
