7.850554964500222610e-02 3.612379369971342458e-01 1.150100723005426928e-01 -1.534993837509254666e+00 -1.323729890455159541e+00 -4.874040259058182167e-01 4.581932086925398218e-01 -7.037248186535967065e-01 1.471812576914227844e+00 9.315641535549757934e-01 -5.843140461856203421e-02 -3.885600218296011987e-01 -7.349395536692224229e-02 -1.712251859958003122e-02 4.323273966894923270e-01 4.104781620418812005e-01 -2.887950486017279994e-01 -2.551583344100549766e-01 -9.292558171385690846e-01 -1.275545874588247308e+00 1.125943666162040779e+00 -4.223443173426171815e-01 -1.863335023803958101e-01 1.306655194374342077e-01 4.062774937002399112e-01 -5.703349583085832730e-01 1.738713653673373272e-01 2.161752683089629146e-01 1.555867081397601104e-01 4.773561547593290627e-02 4.296724755672137741e-02 -8.374916027217615966e-01 3.261290091364540955e-01 4.043157419897048799e-01 -1.982814187615971335e-01 -1.092452990629815046e+00 5.878971355484010619e-01 1.520767923728925997e+00 -1.799075442543927261e+00 -1.471030447333173008e+00 9.284921995002610728e-01 6.302982261894477523e-01 1.364926676376396752e-01 3.415180899860435493e-01 2.382405270440172806e+00 -3.776354045057955799e-01 3.520025344489793873e-01 -2.096986594507218860e-01 6.957276593869540227e-01 4.494355171113803560e-01 4.332591644744175352e-01 8.823825496622604847e-01 -1.558563140170428074e+00 3.478856840703309361e-01 -1.001549581550736701e+00 5.021873548510800145e-01 2.465687929755127836e-02 3.042957153284305272e-01 -2.315828611012993310e-01 -7.156825052268033227e-01 2.709248532034276291e-01 2.669072474067275547e-01 -3.589342285664140486e-01 -5.037084194801134673e-01 -3.928429654723395448e-01 2.794614299128885260e-01 2.108325159439669583e-01 -4.507174691466002692e-01 -2.695055528374386444e+00 -1.142958198428930747e-02 1.027880763225614835e-01 -1.071411596594851634e+00 -4.242381919297471549e-01 -3.697107503482447433e-01 -5.783799400939885205e-01 1.314281086344784022e-01 5.624596693316905593e-01 -2.450878375557641320e-02 5.618060949086001177e-01 7.105927494126811350e-01 -1.152337582754005441e+00 3.002760526492030402e-01 3.727107135144995254e-01 1.492804605768533133e+00 -5.516317254866742736e-01 2.173852294557228615e-01 3.827344162912912906e-01 -1.124389691412568393e-01 -9.861131924030160922e-01 -1.582364356336568800e+00 -1.169132028590460712e-02 8.057765310313387275e-01 -9.792303492456080338e-01 -7.661311487564146372e-01 2.754679924858857015e-02 -3.367353238891400147e-01 -1.136278472421106356e+00 -5.990942898070908962e-01 7.850544680087584437e-01 2.052763620167502301e-01 -4.812143521601534579e-01 -2.139935330121193413e+00 -9.012878711924893205e-01 -1.354754878057629952e+00 4.574285626129681592e-01 -6.148093865372780131e-01 4.257474294842479856e-01 -1.934100010277614468e+00 1.286453522631201496e+00 6.189087534144432912e-01 1.326854809234955690e+00 1.766096930761031025e+00 -2.362363007092907363e+00 1.273266848747856228e+00 1.229471705973844697e+00 -8.536191043986980365e-01 4.126466304464228574e-01 9.824982213610602422e-01 -8.827368476776101258e-02 -1.013148856343538684e+00 -1.642822304465280103e+00 2.685653004120878151e+00 -4.701889475925038475e-01 1.230218868551933298e+00 3.182064118614306714e-01 6.887568845014983010e-01 -7.943875724769661195e-01 9.934156395960198616e-01 -1.109748801582330913e+00 -5.300509140088924820e-01 1.105195892107867728e+00 -8.568720641158262818e-01 -6.434221651557063826e-01 -1.185411225353794951e+00 4.840903881541305243e-01 3.766943807494970153e-01 1.495677556438719247e-01 -1.324176233963611393e+00 3.659152878645069995e-01 -6.994470172171769473e-01 -2.872374743078325854e-01 5.824319986730230880e-02 1.808359696052108223e+00 2.594368557553593746e+00 -1.959482969107348316e+00 4.612409943775572785e-01 4.281102732876316819e-01 -1.394168346827586280e+00 -8.740331492627957388e-01 2.589106023607167795e-01 1.759468626816392156e+00 5.606902361374701549e-01 3.324847761462086659e-02 -1.994852092607748151e-01 9.752142861108034633e-02 1.683811859471878503e+00 2.120959560364400198e-01 1.295392734095406340e+00 8.948261747325721160e-02 5.826068336878545417e-02 -9.842527421569570167e-01 -1.309174875470442423e-01 -1.343643084423828404e-01 -2.059906144743998413e-01 6.417427205720609429e-01 4.855595164993465884e-01 1.061011998536172118e-01 4.573874249624196309e-01 6.920895484165644207e-02 1.577374359325026898e+00 3.769052112085584105e-01 -4.357546772008203395e-01 1.486298172113644511e-01 -1.923488553318609962e-01 -7.462493222462890374e-01 -7.349518949643869536e-01 1.379032262528870678e+00 7.875222128210410677e-01 -4.423233315521638009e-01 7.789918067591624640e-01 1.048928842128792560e+00 5.920911190218280939e-01 -1.765031465611823225e-01 1.339661988291990236e+00 -3.399425179700332200e-01 -1.663637441422226304e-01 -5.258106506785983347e-01 3.965983187467924664e-01 4.823214691805419174e-01 -4.426858570976230922e-01 -3.638265236579031892e-01 -9.020103511802487484e-01
5.108956812515811352e-01 -6.796608357445767246e-02 4.611592332970919639e-01 -1.941069756721806483e+00 -3.659368851310449977e-01 1.000200266612743388e-01 3.884057556400440370e-01 4.539066655053783927e-01 5.085076406372365243e-01 8.560529106492777984e-01 -1.195314600502732194e+00 -7.939761959714803918e-01 -1.561515795038551868e+00 1.785564295441879890e-01 5.266046073341856815e-01 3.670347461800601008e-01 7.977104662000272794e-02 -4.561147288985730741e-01 -1.472792681438547913e+00 -5.806039443267708711e-01 9.695933403839726017e-01 -7.573950544417933362e-01 2.115940766997474187e-01 1.582308306287696642e-01 -1.530850247657749297e-01 -3.670080067072034602e-01 -2.216152083733799460e-01 2.825544670135093916e-01 6.584584906518419212e-01 -4.001922067428421992e-02 1.278784436127683666e+00 -1.453373653497093576e+00 1.681450044109758790e-01 2.007633560633189873e+00 2.155993412012829347e-01 -8.421381003512228292e-01 -2.193870903755428328e-02 5.787383518743930422e-01 -1.796728539580131123e+00 -8.337444769774181585e-01 9.805884059343427106e-01 7.095540237363294755e-01 -2.631089052874513889e+00 -9.394502411651373119e-02 1.264401685054638569e-01 1.002894782723674910e-01 -2.662759387369964870e+00 -4.525558079054896043e-01 2.550662889169525438e-01 -1.316327684459575320e-01 1.934448651866013558e+00 -7.160028646804503794e-01 1.283756949637742395e-01 1.173590321468662295e-01 -4.064482149500165953e-01 -4.305980727045566336e-02 -1.767786659757313972e+00 4.974724658775815656e-02 3.092805701336538982e-01 5.434484183512992006e-01 4.956366982218514405e-02 4.394802056786255018e-01 -3.007727897795771099e-01 -7.365732326166326560e-01 -5.235845895632886687e-02 -2.457568385978103342e-01 9.704834562977175672e-02 1.707880984587217266e-01 -1.774010786285312946e+00 2.541993129316413302e-01 1.372146334047671390e-01 -1.191269226791911828e+00 -3.273142876928848422e-01 1.566264622573752541e-01 7.813829326972983047e-01 5.498833753383597367e-01 3.494324597309573233e-01 3.805170969267231973e-01 1.852526106122320604e+00 8.428055587313734165e-01 -1.787924568142104376e-01 1.640852325224635144e-01 4.634362022549555482e-02 4.079831635361101938e-01 1.397524664891718116e+00 -9.005345379668187045e-01 3.394745771950432034e-01 -2.664526763681658306e-01 -1.000200780833375269e+00 2.071551699393667345e+00 1.699697677451842193e+00 -3.564258603242148049e-01 -6.523346371470549743e-01 -6.118279353137701104e-01 4.031407478459112514e-01 -1.734815861283895699e-01 -3.907516301625764688e-01 1.315772326177170048e-01 1.034982150151562280e-01 -3.525563500694895991e-01 -2.590185886934067705e-01 7.329572331334130997e-01 -6.509236157332387585e-01 6.819342051580172814e-01 -6.319504170796048648e-01 -2.226858157289065554e-01 1.098969194476709266e+00 -2.832981843133643984e+00 1.730019725450563817e+00 4.494648276873962067e-01 1.792595748361894836e+00 2.690229567744407024e+00 -2.063557111230184538e-01 9.484573297527475466e-01 1.689249228433136407e+00 -7.000717952848833914e-01 3.452482464495355563e-01 5.558365075933703325e-01 1.667324403352642426e-01 -2.439719787846340582e-01 -6.038338613709184899e-02 4.083246060356633955e-01 -6.770527086997972788e-01 1.011450385596514456e+00 5.384985305490421759e-01 -1.530012068027822476e-02 -3.858217969649617718e-01 2.198591449155877231e-01 -1.447373212943952048e+00 -2.276453708790425967e+00 -2.956753206559769587e-01 -1.611334518294138096e+00 -3.954228103823669849e-01 -1.014397384037687866e+00 1.754649351054626827e-01 2.598218013203676402e-01 -6.504016817919037186e-01 6.780837210666706971e-01 9.927327545969135691e-01 1.875699458896963989e+00 -1.927122036303312580e+00 -2.047333450295090729e-01 4.128857430402363971e-01 2.325579776854900693e+00 -4.213950660562089112e-01 1.432412992101331564e-02 -6.122603948651619277e-01 -1.314245090900553921e-02 5.299933212981244868e-01 6.416995260389849465e-01 8.600514902825993069e-01 3.022640296119628173e-02 5.769293236915196132e-01 1.170181038679449503e-01 1.177462402826546725e-02 1.072419983253923625e+00 -3.159268718004078214e-02 1.163774878047772798e+00 -1.832317235290333857e-01 9.859188170041741639e-01 -6.486106513311452604e-01 -1.460751691122980367e-01 4.589419139325238810e-03 -4.664001699769802500e-01 6.960999551244185790e-01 9.324414139529241252e-02 6.433594302386197450e-01 -2.028749516659772434e-01 -1.467892673037580753e+00 -7.745299143365377281e-01 1.328884952289527410e+00 -4.265017911511824189e-01 -3.499847326895718647e-01 -1.122055129743936841e-01 -2.065670043806485445e+00 -5.903186005038165707e-01 9.522728468411277847e-01 7.162682025264885954e-01 -6.267393051963642270e-01 7.530036102457330349e-01 1.414965486062417788e-01 4.167902202979278936e-01 3.152352450505599424e-01 5.518836935962841972e-01 9.670196661215276768e-01 3.990712057653936218e-02 -2.042774884393677048e+00 2.857133243550079582e-01 -1.261528220163820713e+00 -7.163977861257165847e-01 -5.344166471733599044e-01 -9.907674033419554549e-01
5.244531082104954001e-01 3.735812890442336866e-03 3.352651671026604108e-01 -1.860440990087866009e+00 -2.341961303523974747e-01 1.303960678263410555e-02 3.648925030277430648e-01 4.305811034237053136e-01 4.104411381563874972e-01 7.516496673220530722e-01 -1.294835833151104953e+00 -9.181244831207568957e-01 -1.655378029633336689e+00 4.272299275658921619e-02 5.592349917493143474e-01 3.764295571240905414e-01 2.484765515197029026e-02 -4.905160891698177594e-01 -1.631491452842307233e+00 -5.236663506437539972e-01 9.286557216611917021e-01 -6.896295169137598435e-01 1.220775206647876365e-01 1.772235696664141991e-01 -1.082100186648634887e-01 -5.846698868628654733e-01 -1.843429543144766980e-01 3.792829674102659587e-01 6.028722687893456333e-01 3.725785588121122843e-02 1.269865793488752725e+00 -1.191284653410867644e+00 2.134298443554775160e-01 1.805752597448592622e+00 3.788422803287643803e-01 -9.624929818992888908e-01 -7.733569770752715677e-02 6.518399568992083726e-01 -2.048404571871249136e+00 -6.376906619930263753e-01 1.266166490263172184e+00 -1.923030896956257063e-02 -3.034633978137065480e+00 -2.073604982376673622e-01 2.648596208506722935e-02 1.162652848629060487e-01 -2.599809011838642103e+00 -4.862840533696332623e-01 1.890928102909413822e-01 -1.681012956572680017e-01 1.776158171643948513e+00 -9.618712891553736766e-01 1.793591279505170333e-01 7.473836929601658519e-02 -3.977691991255312698e-01 3.814900023621969199e-02 -1.629391375781802598e+00 -2.069480932909179005e-02 2.735273238212567737e-01 5.487330637848953918e-01 2.800137028715031229e-01 3.936209812883394998e-01 -3.225659743783157452e-01 -6.589598557679026136e-01 -2.053987465271322199e-01 -1.751934266118420902e-01 1.304603454053231970e-01 2.269697878129086632e-01 -1.692581378127570924e+00 2.720931624790071113e-01 1.026739193422891994e-01 -1.142940200706815679e+00 -3.021529579554816936e-01 8.473533259995182088e-02 1.088326370059161219e+00 5.255807940561580960e-01 3.705664134796551323e-01 4.055709545520681802e-02 1.319493740889920108e+00 8.747227191301161220e-01 -1.063547106251228058e-01 1.392504328862896601e-01 3.889719125557187379e-02 4.706738576483451841e-01 1.258210982867710159e+00 -7.221807113515823495e-01 3.791107034985938262e-01 -3.180382617148133639e-01 -1.005999132678196517e+00 1.977638556956329063e+00 1.741118663568569147e+00 -4.769350080618381393e-01 -6.376880908898671096e-01 -4.683675781144657213e-01 5.371749266426417702e-01 -1.250394315042849258e-01 -4.136046234835727975e-01 1.506913277244798233e-01 4.564993659312022861e-02 -3.724983403935425152e-01 -3.487562596000651216e-01 5.772687093085452359e-01 -5.759363636514033269e-01 8.495927568512562367e-01 -5.070801641632008971e-01 -2.392899999315745707e-01 8.532318962629094061e-01 -2.852348934791280488e+00 1.831423005611534371e+00 4.760824302542188691e-01 1.663345878323963634e+00 2.594289367576287475e+00 -7.724365221442473783e-02 9.389293356650660893e-01 1.770335137208797871e+00 -5.874019410799226071e-01 3.604172408686900919e-01 5.722982526810138637e-01 2.611937419661625737e-01 -2.468480147786112078e-01 -6.336946534628642991e-02 2.372197476677176120e-01 -6.558189961485190178e-01 7.387576418607619821e-01 6.322337526477581626e-01 -1.462541178921843155e-01 -5.339204242636176323e-01 4.401008699812771624e-02 -1.450908479787970329e+00 -2.109457473271019179e+00 -1.956295829631097272e-01 -2.056807451216426941e+00 -3.009573949864137732e-01 -1.264308096899640299e+00 1.363620555971479520e-01 2.097804205311872006e-01 -6.290707815412046600e-01 7.861045065390107611e-01 1.477845413367176342e+00 1.893829849934983933e+00 -1.776318094260456171e+00 -2.160318007526747797e-01 2.430597513837194634e-01 2.519258920961375825e+00 -4.795266800463981460e-01 -4.614101729654382714e-03 -4.044211572192356052e-01 -5.321412208773918656e-02 6.575205522193344754e-01 7.157102731409236140e-01 7.886452706810170854e-01 -5.628350503929464149e-02 5.529928674992000692e-01 1.620633169980011390e-01 2.187031769351727856e-02 1.351927178803047136e+00 -9.256177061681794549e-02 1.270213920856520184e+00 -9.442839151045948065e-02 1.186599589234016872e+00 -5.972754914322121467e-01 -1.698912976767628091e-01 2.559276084753132896e-02 -5.639545087084995023e-01 6.628273091401004624e-01 1.132601794903327352e-01 7.282114909220033239e-01 -2.226698748893189972e-01 -1.409703466336623467e+00 -9.240807006995582773e-01 1.406275157384031527e+00 -3.365743728313687622e-01 -3.558982699559293250e-01 -8.848451522682244941e-02 -2.152132643508845700e+00 -5.175584379785543865e-01 1.165078941570162563e+00 5.595764342488673826e-01 -5.769858879610237912e-01 8.486080243412499335e-01 2.609032073091632764e-01 5.076812880818419860e-01 3.336921661898093472e-01 6.769930591065017600e-01 7.821146686564309780e-01 -4.197325907534146805e-02 -1.532218074538489683e+00 1.983287270597280105e-01 -4.949661545179097066e-01 -7.100872705315653954e-01 -5.376001871051875325e-01 -9.720960521992216830e-01
-4.713845105615718012e+00 4.214752844747786109e-01 -2.993129174057345132e-01 1.147249883822410776e+00 -8.441857269072780556e-02 -2.398674697011501933e-01 8.392106422940599497e-01 -4.013630871215809748e-01 -3.186069897336473722e-01 -4.089864079888635429e-01 -2.511895795733813941e-01 -8.490296852593726129e-03 2.564798814339279143e-01 -1.991489089675402002e-01 -4.821404635181282261e-01 -9.221374609317701809e-01 8.440880249872252661e-02 -5.471389798261381276e-01 9.192259437141948597e-01 4.371646701733726825e-01 7.462277249797509837e-01 1.088000354178563889e+00 6.634680280473945202e-02 -3.243827158706671376e-01 1.461965251814163202e-01 8.701173591512033623e-01 -2.737170712344120793e-01 -5.752971874060047730e-01 -1.936647459287834938e-01 -6.943382352396759716e-01 -4.050083971808164929e-01 1.478800835301166683e-01 -9.692390423686232659e-02 -2.442835964875395283e-01 -5.947167295680909627e-01 -5.893832331744683906e-01 -1.592232764482539864e-01 -4.081795958174795902e-01 1.164663451299621899e+00 2.410486344925260871e-01 1.708163805934738710e-01 4.869304287038777046e-01 2.204179484762269325e+00 8.627696605425962117e-02 -5.033062989460012071e-01 1.336186885261899382e-01 -3.739263310882098290e-01 2.357753019128308314e-01 -2.864980250392220110e-02 -6.683901479355313091e-01 2.103995421719432046e-01 1.779779313333486879e-01 5.695980801431318463e-01 3.615007037400132517e-01 1.463456491646548896e+00 -4.226050272029687749e-01 1.869644510956845751e-01 -5.234508921990057573e-01 -2.021550427813771922e-01 -9.060053312691471183e-02 -5.659651113790610255e-01 -1.058618815715508976e+00 5.927030415737382096e-01 -6.474809086029550964e-02 5.292461587200360251e-02 1.925036357420500110e-01 -6.073449598452392850e-01 -5.749634582159295348e-01 -1.326380697812383214e-01 2.278336784744287025e-01 -1.295470895631448682e-01 4.411025717721349104e-01 1.875483486231583896e+00 1.081143736273380451e+00 -6.543005026226448306e-01 3.266293458112511372e-01 -2.095731896165487496e-01 9.063606577257604657e-01 -1.082812896444388828e+00 -5.908873285226505789e-01 -4.102241370497436979e-01 1.644430272381097513e+00 1.501436827515519323e-01 1.492931618264602134e-01 7.246798236224081258e-01 -5.422209737030562193e-01 -1.316070574143647087e-01 2.543157839047569979e+00 3.691420223294107350e-01 -2.052701913691679370e-01 2.013029791943898861e-01 7.435573772385167812e-01 1.304219331241234903e+00 -4.886175865970011079e-01 1.019068050036846751e+00 -2.595657194457027805e-01 5.884455518522766937e+00 -3.655645893935804414e-01 7.028336742985882291e-01 5.242715883274498001e-01 -2.562803638287672880e-01 -3.535606229635065989e-01 -9.406514605611557833e-01 -4.776302343561090180e-01 -1.071210022107163651e+00 5.483998488154518958e-01 1.819929660268894689e-01 6.442552025793150117e-01 -2.733298630986236710e-01 1.347248799494410898e+00 9.867652241642110855e-01 1.838472456253663900e-01 -9.672448947582810153e-01 -6.392050417538457374e-01 -1.289163465361088834e+00 -2.907845682263833775e-01 7.921738526568210537e-01 -1.332672701463787579e+00 -9.042718935191564888e-01 -1.060678269346096769e+00 1.406353318920073869e+00 4.359248842299650595e-01 -1.127249786566957956e+00 -5.234457499926871149e-01 -6.301408746760993607e-01 1.446399279067214660e+00 -7.973397131244581715e-01 6.585870458098062041e-01 -1.964646772692457688e-01 3.762392954903033826e-01 3.384451074900651224e-01 -1.663298055805200598e-02 -1.095229782041843958e+00 -9.063832834335620037e-01 4.700609066551714177e-01 -2.979548607169997879e-02 3.611937140227944321e-02 2.317808360445643145e-01 -6.027740526486607964e-01 -2.697097498503491786e-01 2.148048703250635960e-01 -1.428104851647632234e+00 5.125771827177540985e-01 5.755141885126486834e-01 -9.048843302916984022e-02 -6.862994241018527397e-02 -3.817224300877963827e-01 3.795267079897662876e-01 -9.457756691576124641e-01 1.155325204625095720e-01 1.093936002932091256e+00 -4.592710151369124860e-01 6.041912447100592498e-01 -7.175655811806642692e-01 1.856454237529077567e+00 -7.266816845422282567e-01 1.015206767312231140e+00 -2.851404825711191179e-02 -8.186402743578776731e-01 -8.149116605562812810e-01 1.765843419989525653e+00 8.250860299782073470e-01 -1.663243548418223972e+00 -5.018114595691923752e-01 -9.049254679422469305e-02 4.767257202646722480e-01 -8.811221948935785142e-02 5.264986778840231585e-01 -6.660113632925600546e-01 4.364416759649815680e-01 1.040665316574847843e+00 -2.457357555519041892e-01 -1.338300332058832420e-01 -7.467856543653159651e-01 1.438971876260669802e+00 -1.467272008734929190e-01 1.619861839032225581e-01 -5.024017848545643261e-01 -3.513191352292412417e-01 7.597830950561379471e-01 -1.886177218491685625e+00 -3.592689861977531041e-01 -2.060173539472564264e-01 -3.107055269265933450e+00 2.548683139736875325e-01 -1.245131781096423085e+00 -3.064009345952537489e-01 5.152665566223670890e-01 -1.056877150435408863e+00 -3.856191940360100268e-01 4.469312626342359374e-01 -1.077480942712661705e+00
-7.440155478215014495e-02 1.016485634023659990e-01 1.390498868398653554e-01 -1.766122641792624126e+00 -1.641229248947786656e+00 -2.412954603958175348e-01 2.821096661669529326e-01 -4.708137256602102916e-01 1.422114695507127990e+00 1.189805240653014629e+00 -6.717264113950205742e-03 -2.921647364022880375e-02 4.499008867832111069e-01 6.652986534968059924e-03 4.624859225272834884e-01 3.397563701013009418e-01 -2.421562657335464275e-01 -1.772724206264406632e-01 -2.201239685409941416e-01 -1.054437173537246419e+00 1.266552669957697219e+00 -7.526914783221956284e-01 -1.357542468102927724e-04 1.410779730119100517e-01 2.839505760290016445e-01 -2.923318581076416178e-01 2.175333249976977024e-01 2.733314057605192304e-01 2.068293083249589104e-01 -1.638970277712037960e-01 -3.514749440806939906e-02 -1.530305688008612774e+00 2.092168347186717514e-01 5.788499377515060607e-01 -6.575478059128229136e-01 -5.978627313937930898e-01 6.846276928276850970e-01 1.132867646969997644e+00 -1.078086180396357507e+00 -1.173934849292006533e+00 9.247003365609464121e-01 9.108215217071213843e-01 3.083637147470525419e-01 3.366098540549669060e-01 1.768220147749969273e+00 -4.949574127671680923e-01 3.857102110878487533e-01 -1.635000494434100671e-01 5.353545856058674612e-01 2.620087816676561765e-01 4.193088729527643665e-01 1.241960582459759710e+00 -1.259640002003641124e+00 4.139332104673295043e-01 -9.724158974322367754e-01 5.211034750145777661e-01 -2.005100509800660999e-02 2.589625386445343347e-01 -4.664243383466775694e-01 -8.414310469824192174e-01 1.044531227285149799e-01 3.198514036627417290e-01 -4.597476976626440059e-01 -5.280151145273700442e-01 8.339630207459576561e-02 1.854238460826404811e-01 1.845044195928798592e-01 -4.920767487875042923e-01 -2.463423302092428990e+00 1.003984930463212161e-01 1.013868251007506993e-01 -7.458883393627252500e-01 -2.658381827130965047e-01 1.222508130177235031e-01 -3.333748920599535204e-01 2.701951741268223128e-01 5.844883669798199843e-01 3.753918598890027547e-01 5.362848107288969990e-01 8.008945203524867607e-01 -1.186790879309067792e+00 3.639355384318568865e-01 3.753769474906789028e-01 1.555247445536213080e+00 -2.600053780859406527e-01 1.953267070109458436e-01 2.725713876666343016e-01 -2.107003612415796479e-01 -1.199243246130121010e+00 -1.275142725612871120e+00 2.072730807302516076e-01 1.033385495089645945e+00 -8.297278996219819014e-01 -1.336675394862163690e+00 -1.630593623619084817e-02 -6.519104051257726962e-01 -1.306588345692200726e+00 -6.517715655551713505e-01 9.207187262084761681e-01 2.099830234601389178e-01 -4.958902089933571178e-01 -1.956319998000794369e+00 -9.714172809651701046e-01 -1.275283107845368136e+00 -1.236237821047821497e-02 -4.042782038835792680e-01 1.150724986852501353e+00 -1.391578217504921833e+00 1.147906029348660484e+00 7.603934749461522813e-01 1.103581753544468080e+00 2.054647210341995045e+00 -2.050362724037360973e+00 8.771380134379492821e-01 6.295736893191610228e-01 -8.964439128403948187e-01 3.352924207961488490e-01 9.006229839154982209e-01 -2.774461992566402690e-01 -8.134862409647731774e-01 -1.493809392883182152e+00 2.988165916518660481e+00 -3.737360694544226702e-01 1.018671071709053022e+00 3.077080834414346877e-01 8.196064949251373744e-01 -6.319283055924349579e-01 1.211123285387917248e+00 -1.172206553748334601e+00 -5.116603273311527422e-01 8.272318726749472440e-01 -1.026907343569509079e+00 -8.322928321336854340e-01 -1.233744879424578000e+00 8.771704093377563627e-01 3.991421682125899095e-01 1.136581862593901739e-02 -6.961626900415052166e-01 1.066071929553646797e-01 -7.953661343393902960e-01 -2.891514034996049975e-01 1.816587226161822943e-01 1.750608605329493139e+00 1.971710621512279937e+00 -2.051003957165287162e+00 5.059519640969062371e-01 1.582020342733856388e-01 -1.870292943173617717e+00 -1.112790416619766187e+00 1.402943007689597121e-01 1.875291167715269269e+00 9.011963399200187963e-01 1.347839124779783015e-01 -1.405940913973324491e-01 1.803515737700013832e-01 1.283094119243278541e+00 3.650498545410913454e-01 1.419745681056162168e+00 -9.017527266436882460e-02 5.083790854792721858e-02 -9.313209271961072622e-01 -1.023823562440261681e-01 -2.527687511338147508e-01 -1.295542886519908676e-01 6.976580436389456796e-01 4.390888837777822129e-01 1.024898283560843337e-01 3.279555208208107531e-01 -4.779629351049206193e-02 1.342049514685702993e+00 -2.969886401497401351e-01 -1.745485939394932073e-01 -1.236042417207715571e-01 -2.143574983753478436e-01 -9.278540516961263362e-01 -7.422301737876935146e-01 1.061849663945467537e+00 1.293711232629233487e+00 -5.642866952366791811e-01 6.242201383208959564e-01 8.943726321352741815e-01 1.857935707169457995e-01 -1.082902370834332023e-01 9.550655790927440325e-01 -4.799946208213881627e-01 -1.845285879625771508e-01 -6.437615507727321162e-01 4.148459520888759799e-01 -1.448343547276266519e-01 -3.642322437364384768e-01 -4.642918653863658540e-01 -9.610480219237702570e-01
1.964565525832624004e+00 9.865888464874841834e-02 5.357027129736346982e-01 1.060830478653126852e+00 -9.401855766686929849e-02 -1.756824504327382519e-01 1.278476932189832826e+00 -6.444984289381834597e-02 8.866809199239547579e-02 -9.139947772263119496e-01 -1.496124928388434805e-01 1.989637895400716283e-01 -6.448069613172976999e-02 -1.032478409895049909e+00 -1.041851109351910276e+00 1.020348459410171049e+00 9.264867390360181920e-02 -2.061654494892312395e-01 2.550035539998659617e-01 6.528555426471261969e-01 3.801993085762354618e-01 1.331059077121019785e+00 2.600917671520927010e-01 8.888807557870396225e-01 -5.379372587293699937e+00 1.101449280584156254e+00 6.780261283559027019e-01 6.428570366812954573e-01 4.417875136537687264e-01 -4.816293282100621298e-02 -1.633847097556844874e+00 6.759373641492989471e-01 3.240531004456466690e-01 -4.513211641684006237e-02 2.463589909577150461e-01 4.364308773317125412e-01 -1.269055381772946078e-01 2.648287676127609180e-01 -5.221200892037594077e-01 -4.895128447170644659e-01 3.262477941024131134e-01 1.110221370343007719e+00 4.137738020714538112e-01 4.660433008584713432e-02 3.132128153054657416e-01 8.893085873527446505e-01 4.252815455917854370e-01 4.100863259204060585e-01 -2.427383634888087560e-01 -9.675457138279174307e-01 -6.819254634072756671e-01 1.900770285803159987e-01 -1.151406843410344161e-01 3.266668839173767491e-01 2.014551885014196075e-01 -1.182506907225065879e-01 1.392380915911250738e-01 -3.211786071135651066e-01 -1.151339994728202698e-01 4.708507495457039949e-01 -3.881337329257915966e-03 2.568773739823534963e-01 3.065444021515419393e-01 5.874122254925598918e-01 3.095834460858177817e-01 -5.962480786097614782e-01 3.124574251972674910e-01 -6.336524873710520644e-01 -1.504671275289900800e-01 6.599708135301338707e-01 -6.613103582761218346e-01 3.138818163475118883e-01 -2.152229316987634977e+00 1.043823145475082592e+00 -2.714025641704229663e-01 -5.334535119298914330e-01 8.096290720052126133e-01 7.869169751373451815e-02 -1.017668855697563268e+00 1.167167705776766262e-01 -2.129077047258897348e+00 1.562390484333340934e+00 3.109502445252941838e-01 -3.098842651554542527e-01 3.928928448736296875e-01 -9.005720760729442054e-01 4.637797016370361347e-01 1.479091369958166258e+00 1.641423110125996565e-01 3.630551927101174359e-01 5.132811507627664804e-01 9.733990872803476024e-02 8.262147442651337492e-01 -4.486220200717823126e-01 -4.132816929267664752e-01 -6.327258617924454986e-01 9.592307662107870669e-01 -3.638044121707332823e-01 8.923013514301535165e-02 -2.588746069164867269e-01 -8.901621936016277381e-01 -7.226543085535228617e-01 5.073269900664922893e-01 -1.084887776693932437e+00 -5.687958959574346274e-01 2.877923183696065035e-01 -8.595156723842041213e-01 -1.099691674464468444e-01 -2.850610354834971716e+00 -3.714256761554884378e-01 -1.930127141675886185e-02 -1.185161314126712551e+00 5.057714726551244544e-01 -6.733919720216059446e-01 -2.344658390738065812e+00 5.993961373179911706e-02 6.299428997328343494e-01 -8.168929526508270644e-01 -6.161576730340073693e-01 2.111801290911023976e-01 6.203827154335987082e+00 1.042566904471455558e-01 -1.365053688872465587e+00 -5.563589557553371145e-01 1.302921952587058896e-01 1.215389773970436238e+00 3.093819230201929393e+00 -3.232061790649779498e-01 3.553141153181396117e-01 3.836085913654484897e-02 6.546157198699732449e-01 -9.439280744273496060e-01 1.549783851322730499e-01 -3.309745101504442122e-01 8.610228530561774285e-01 -5.315652937697119135e-02 -7.086304834815141396e-01 -2.663086945912458425e-01 -9.208256840999025084e-01 -9.840496250073734741e-01 -3.884042129781484776e-01 -1.891589904862614135e+00 2.786870136413116539e-01 2.477525288700480055e-01 -2.040982825491654551e-01 -2.250152351912195203e-01 -2.839176659085627663e-01 -7.470993289507489310e-01 -1.656546338908916061e-01 3.696629278294820686e-01 9.474515141968348209e-02 3.807191856350430892e-01 6.330709038364215058e-01 -1.603674173541361769e-01 4.933031649944836228e-01 -1.033470341493902267e-01 1.476639565985471192e+00 -1.941542839703115295e-02 -1.309211385135304218e+00 -1.354293622150854137e+00 2.622931456770731806e-01 9.758879151385364825e-02 -5.481437669407870916e-02 3.911470658284745827e-01 3.704728253246570846e-01 -6.405049915111806769e-01 -5.626674144669610023e-01 8.985614734023825712e-01 2.627481795142036169e+00 -4.714328473009662956e-01 7.667682681192857785e-01 -4.293459454659844243e-01 -5.972672639021023994e-02 4.065865402999861433e-01 1.748970812617028026e+00 -1.149077423948031279e-01 -5.569204846853252899e-01 -1.481173963517187664e+00 -1.584159500562382361e-01 7.069500104566047716e-01 -1.508815893582669820e-01 -4.672440060338577950e-01 -3.209312669896418058e-01 -1.525935326858458785e+00 7.421849223720899946e-01 -4.047492299823605144e-01 -3.347941410038792753e-01 1.068255824577144297e+00 -1.432954466426677342e+00 -6.124876803844427897e-01 1.228608329532956622e+00 -2.772507954165345789e-01