1.201239999999999952e+01 3.509749999999999925e+00 4.406209999999999738e+00 6.495650000000000368e+00 6.174979999999999691e+00 5.820400000000000240e+00 1.064569999999999972e+01 1.074329999999999963e+01 1.334789999999999921e+00 9.562350000000000350e+00 9.263289999999999580e+00 8.541869999999999408e+00 1.226909999999999989e+01 1.041820000000000057e+01 6.856139999999999901e+00 8.136309999999999931e+00 7.531640000000000335e+00 8.249719999999999942e+00 1.661810000000000009e+00 3.177639999999999798e+00 2.846680000000000099e+00 1.132150000000000034e+01 9.462500000000000355e+00 4.671439999999999593e+00 7.975319999999999965e+00 3.819399999999999906e+00 1.126759999999999984e+01 4.232380000000000031e+00 8.187369999999999592e+00 9.437290000000000845e+00 9.417419999999999902e+00 7.834629999999999761e+00 2.891300000000000203e+00 6.835909999999999487e-01 1.207850000000000001e+01 2.437570000000000014e+00 4.314180000000000348e+00 6.271270000000000344e+00 7.965410000000000323e+00 6.820050000000000168e+00 2.657610000000000028e+00 5.835860000000000269e+00 1.833669999999999911e+00 1.828689999999999927e+00 1.688550000000000051e-01 1.954290000000000083e+00 9.772280000000000300e+00 1.054439999999999955e+01 -5.971499999999999725e-02 7.902739999999999654e+00 8.941290000000000404e+00 1.129870000000000019e+01 8.911329999999999529e+00 1.124070000000000036e+01 1.842100000000000071e+00 4.913680000000000270e+00 7.450899999999999856e+00 9.734790000000000276e+00 2.892580000000000151e+00 7.197420000000000151e+00 7.489889999999999937e+00 6.508350000000000080e+00 2.556179999999999897e+00 8.622799999999999798e+00 9.188810000000000144e+00 4.272679999999999811e-01 7.420679999999999943e+00 1.416639999999999899e+00 1.816820000000000102e-01 1.667899999999999938e+00 1.080840000000000067e+01 4.488179999999999836e+00 3.806090000000000195e+00 2.880920000000000147e+00 2.244959999999999845e+00 4.369500000000000384e+00 2.856559999999999988e+00 7.890789999999999971e+00 1.026389999999999958e+01 1.134939999999999927e+01 1.064899999999999913e+01 7.418309999999999960e+00 3.044270000000000032e-01 9.813090000000000757e+00 4.080390000000000406e+00 3.401660000000000239e-01 1.034610000000000030e+00 6.533070000000000377e+00 1.040680000000000049e+01 7.294450000000000323e+00 4.689639999999999809e+00 6.136610000000000120e-01 9.144320000000000448e+00 8.226779999999999760e+00 7.241389999999999993e+00 1.056090000000000018e+01 3.496519999999999850e+00 8.564360000000000639e+00 7.103769999999999918e+00 3.248289999999999900e+00 7.645499999999999519e-01 4.321839999999999904e+00 1.084280000000000044e+01 6.661489999999999689e+00 1.201810000000000045e+01 9.757830000000000226e+00 2.159000000000000086e-01 7.921730000000000160e+00 3.024669999999999970e+00 -2.388349999999999917e-01 7.308349999999999902e+00 7.705219999999999736e+00 3.487070000000000114e+00 8.509199999999999875e+00 3.601900000000000102e-01 4.173119999999999941e+00 6.070280000000000120e-01 4.611419999999999852e+00 2.154929999999999790e+00 1.132939999999999969e+01 4.889050000000000118e+00 8.508620000000000516e+00 1.863960000000000061e+00 5.648150000000000226e+00 5.182900000000000063e+00 3.386709999999999887e+00 5.190129999999999910e+00 1.099140000000000050e+01 5.250989999999999824e+00 1.859480000000000022e+00 7.064820000000000100e+00 1.072659999999999947e+01 9.165720000000000312e+00 1.021010000000000062e+01 5.883289999999999687e+00 3.657200000000000006e+00 5.144029999999999880e+00 -1.150400000000000034e-02 3.102269999999999861e+00 7.502919999999999590e+00 4.088210000000000122e+00 2.446109999999999951e-01 6.209740000000000038e+00 4.805399999999999672e+00 1.039129999999999932e+01 4.496920000000000250e+00 8.920260000000000744e+00 1.820249999999999924e+00 2.660159999999999858e+00 9.324859999999999260e+00 8.963079999999999714e+00 4.573940000000000339e+00 1.651489999999999903e+00 1.325420000000000043e+00 7.627860000000000085e+00 2.058450000000000113e+00 3.948310000000000208e+00 4.107969999999999899e+00 5.554160000000000430e+00 7.333910000000000373e+00 9.627150000000000318e+00 3.505679999999999907e+00 8.669290000000000163e+00 4.593200000000000394e+00 5.077040000000000219e+00 6.902730000000000032e+00 1.114460000000000051e+01 1.284089999999999954e+00 6.519409999999999705e+00 5.766119999999999912e+00 1.121669999999999945e+01 1.010720000000000063e+01 7.054879999999999818e+00 6.654049999999999798e+00 2.964500000000000135e+00 1.033660000000000068e+01 9.034710000000000241e-01 9.006199999999999761e+00 4.034200000000000008e-01 3.883570000000000189e+00 6.443509999999999849e+00 2.614549999999999930e+00 2.898690000000000211e+00 5.557159999999999656e+00 1.042159999999999975e+01 1.024290000000000056e+01 1.077079999999999949e+01 1.108950000000000102e+00 6.293929999999999803e-01 1.142849999999999966e+01 8.861539999999999973e-01 5.104899999999999771e+00
4.850970000000000226e+00 9.567040000000000433e+00 5.462270000000000181e+00 1.055300000000000082e+01 1.045390000000000086e+01 6.137710000000000221e+00 4.144820000000000171e+00 5.650150000000000006e+00 9.635749999999999815e+00 7.655020000000000380e+00 5.476499999999999702e+00 5.831089999999999662e+00 3.595800000000000107e+00 2.179980000000000029e+00 1.147330000000000005e+01 7.922930000000000028e+00 1.113599999999999923e+01 2.375140000000000029e-01 9.855729999999999436e+00 5.718630000000000102e+00 -6.438199999999999479e-02 1.655110000000000081e+00 5.685690000000000133e+00 2.744920000000000027e+00 9.774720000000000297e+00 7.619799999999999907e-01 2.925699999999999967e+00 1.573409999999999975e+00 7.543470000000000120e+00 6.911319999999999908e+00 1.117440000000000033e+01 2.812129999999999908e-01 7.157409999999999606e+00 8.119510000000000005e+00 9.741109999999999491e-01 7.650120000000000253e+00 9.172530000000000072e+00 7.048060000000000436e+00 3.646780000000000133e+00 3.549100000000000144e+00 1.015199999999999925e+01 8.067059999999999675e+00 4.250189999999999912e+00 6.882220000000000226e+00 8.470069999999999544e-01 1.150140000000000029e+01 4.005469999999999864e+00 7.178390000000000271e+00 1.056850000000000023e+01 1.049719999999999942e+01 3.509250000000000203e+00 2.585080000000000044e+00 8.341060000000000585e+00 4.402639999999999887e+00 1.026169999999999938e+01 -1.214640000000000025e-01 1.031070000000000064e+01 1.697000000000000064e+00 9.093429999999999680e+00 5.564970000000000194e-01 8.054589999999999250e+00 6.729479999999999684e+00 1.453370000000000051e+00 1.196900000000000075e+00 9.876770000000000493e+00 6.557920000000000194e+00 7.851350000000000051e+00 3.433359999999999967e+00 4.164810000000000123e+00 9.850770000000000692e+00 2.445699999999999985e+00 5.786360000000000170e+00 8.529090000000000060e+00 2.938369999999999926e+00 1.708090000000000108e+00 5.116999999999999993e+00 1.137689999999999912e+01 4.070269999999999833e+00 1.056220000000000070e+01 1.755419999999999980e+00 8.705640000000000711e+00 1.632149999999999990e+00 7.309459999999999846e-01 1.164690000000000047e+01 5.394770000000000287e+00 7.536319999999999908e+00 3.637319999999999887e+00 4.241100000000000314e+00 5.545620000000000438e+00 4.997469999999999857e+00 5.393679999999999808e+00 2.540179999999999882e+00 6.689499999999999780e+00 3.391089999999999938e-01 4.392050000000000232e+00 1.105439999999999934e+01 4.116939999999999600e+00 9.658670000000000755e+00 1.837220000000000075e+00 8.046210000000000306e+00 9.671390000000000597e+00 3.063629999999999853e+00 6.520330000000000403e+00 4.948979999999999713e+00 2.829270000000000174e+00 8.407299999999999329e+00 3.898750000000000160e+00 8.574419999999999931e+00 3.729680000000000106e+00 4.352839999999999598e+00 1.498690000000000078e+00 1.101970000000000027e+01 1.214509999999999934e+01 1.140670000000000073e+00 4.019190000000000040e+00 7.328529999999999767e+00 8.188430000000000319e+00 5.910029999999999895e+00 1.368549999999999933e+00 9.690810000000000812e+00 3.708509999999999973e+00 1.135720000000000063e+01 1.036430000000000007e+01 6.313869999999999649e+00 9.068009999999999238e+00 4.934200000000000252e-01 1.165460000000000029e+01 6.954379999999999562e+00 4.779980000000000118e+00 1.916460000000000052e+00 1.071439999999999948e+01 4.003829999999999778e+00 1.034490000000000087e+01 6.575179999999999580e+00 7.230929999999999858e+00 1.772520000000000095e+00 1.961279999999999912e+00 8.957349999999999923e+00 3.255489999999999995e+00 7.643830000000000346e-01 2.200429999999999886e+00 1.332039999999999891e+00 1.558720000000000105e+00 4.844809999999999839e+00 5.851800000000000335e-01 3.248229999999999951e+00 2.253359999999999808e+00 6.071299999999999919e+00 3.970749999999999780e+00 2.152650000000000119e-01 7.284259999999999735e+00 9.732730000000000103e+00 6.389850000000000030e+00 5.531979999999999897e+00 4.066889999999999894e+00 8.699820000000000775e+00 6.370190000000000019e+00 1.074859999999999971e+01 9.785170000000000812e+00 9.085900000000000531e+00 3.126910000000000078e+00 1.107080000000000020e+01 1.573099999999999846e-02 1.035640000000000072e+01 9.452980000000000160e+00 7.304899999999999949e+00 6.012319999999999887e-01 4.459959999999999702e+00 1.128289999999999971e+01 7.717089999999999783e+00 2.160530000000000062e+00 2.026149999999999896e+00 6.589269999999999960e+00 1.140559999999999974e+01 3.844269999999999854e+00 2.711799999999999766e-01 6.122760000000000424e+00 8.779410000000000380e+00 7.284419999999999895e+00 9.230779999999999319e+00 1.047480000000000011e+01 8.657719999999999416e+00 1.148499999999999943e+01 3.705810000000000048e+00 2.987589999999999968e+00 4.180880000000000152e+00 6.714419999999999611e+00 9.719910000000000494e-01 1.361189999999999900e+00 1.883049999999999891e+00 5.066399999999999793e+00 6.078459999999999752e+00
9.632360000000000255e+00 4.594000000000000306e+00 8.244180000000000064e+00 2.589109999999999800e+00 4.216649999999999565e+00 1.577509999999999968e+00 7.007979999999999876e+00 9.254419999999999646e+00 3.839100000000000179e+00 1.665380000000000082e+00 1.162129999999999974e+01 6.783310000000000173e+00 6.545060000000000322e+00 8.807070000000000176e-01 4.452670000000000350e+00 4.126669999999999838e+00 7.051890000000000214e+00 1.781879999999999908e+00 4.583990000000000009e+00 3.835649999999999782e+00 5.213680000000000092e+00 1.321909999999999918e+00 4.510720000000000063e+00 8.010429999999999495e+00 1.796599999999999975e+00 2.198830000000000062e+00 7.167670000000000208e+00 6.912729999999999819e+00 9.943260000000000431e+00 6.444989999999999775e+00 7.621629999999999683e+00 3.240279999999999827e+00 5.904239999999999711e+00 1.021460000000000079e+01 1.400449999999999973e+00 6.651239999999999597e+00 6.265700000000000436e-02 6.112650000000000361e+00 1.017910000000000004e+01 9.547100000000000364e+00 1.176709999999999923e+01 8.208399999999999253e+00 1.053700000000000081e+01 7.635180000000000300e-01 1.092130000000000045e+01 5.682629999999999626e+00 7.533870000000000289e+00 1.191290000000000049e+01 -3.122980000000000200e-01 1.130259999999999998e+01 2.138840000000000074e+00 1.148530000000000051e+01 3.152120000000000033e+00 9.674910000000000565e+00 1.233870000000000022e+00 8.853770000000000806e+00 8.850649999999999906e+00 4.634220000000000006e+00 1.856270000000000087e+00 9.745430000000000703e+00 9.107580000000000453e+00 6.154049999999999798e+00 1.098499999999999943e+01 8.664070000000000604e+00 8.134180000000000632e+00 8.788660000000000361e-01 8.338260000000000005e+00 1.122240000000000038e+01 2.808110000000000106e+00 9.824780000000000513e+00 1.059869999999999912e+01 6.791620000000000434e-01 1.474560000000000093e+00 1.155410000000000048e+00 1.050709999999999944e+01 1.078049999999999997e+01 1.019650000000000034e+01 9.484529999999999461e+00 8.796569999999999112e+00 3.416900000000000048e+00 1.080470000000000041e+01 9.081350000000000477e+00 1.189729999999999954e+01 5.406710000000000349e+00 6.706590000000000273e+00 6.327650000000000219e+00 1.012129999999999974e+01 4.066180000000000128e+00 1.089189999999999969e+01 5.889610000000000234e+00 1.398179999999999978e+00 5.956019999999999648e+00 5.987000000000000099e+00 1.088909999999999911e+01 3.531719999999999970e+00 4.127930000000000099e+00 1.213209999999999944e+01 9.028589999999999449e+00 1.174450000000000038e+01 8.402739999999999654e+00 3.814599999999999991e+00 2.976719999999999811e+00 1.091910000000000025e+01 9.864979999999999194e+00 4.786529999999999951e+00 7.512039999999999829e+00 1.109110000000000085e+01 1.104310000000000080e+01 5.097680000000000433e+00 1.128069999999999951e+01 3.101890000000000036e+00 1.076849999999999952e+01 6.944440000000000168e+00 2.123520000000000074e+00 5.362860000000000404e+00 5.524839999999999751e-01 7.239370000000000083e+00 5.388419999999999987e+00 7.389669999999999739e+00 4.076430000000000220e+00 3.939839999999999787e+00 3.901940000000000186e+00 7.985380000000000145e+00 3.274830000000000130e+00 7.982800000000000118e+00 7.009940000000000282e+00 1.140109999999999957e+01 9.626289999999999569e-01 4.297259999999999636e+00 1.210970000000000013e+01 4.875799999999999912e+00 5.876839999999999842e-01 2.970239999999999991e+00 1.092639999999999922e+01 1.048019999999999996e+01 7.531869999999999621e+00 2.763790000000000191e+00 8.593619999999999592e+00 3.035789999999999988e+00 1.920970000000000066e+00 4.313699999999999868e+00 8.713029999999999831e+00 8.220700000000000784e+00 5.652330000000000076e+00 1.003449999999999953e+01 7.755370000000000097e+00 8.484840000000000160e+00 3.222789999999999822e+00 7.726729999999999876e+00 1.006670000000000087e+01 4.619699999999999918e+00 9.528909999999999769e+00 9.594589999999999508e-01 7.116699999999999804e+00 8.690170000000000172e+00 8.831910000000000593e+00 6.496340000000000003e+00 4.684219999999999828e+00 1.209740000000000038e+01 3.075499999999999901e+00 4.388530000000000264e+00 1.050060000000000038e+01 1.048799999999999955e+01 5.924669999999999881e+00 5.648259999999999614e+00 3.099110000000000031e+00 5.469590000000000174e+00 3.680750000000000188e+00 6.140109999999999957e+00 6.483089999999999797e+00 7.130189999999999806e+00 1.540470000000000006e+00 1.314340000000000064e+00 1.449310000000000098e+00 1.030729999999999968e+01 2.264969999999999928e+00 1.177340000000000053e+00 7.678340000000000387e+00 8.240750000000000020e-01 7.913930000000000131e-01 1.185369999999999990e+01 2.942679999999999740e-01 8.578039999999999665e+00 1.604370000000000074e+00 9.041299999999999670e+00 4.994290000000000340e+00 1.550089999999999968e+00 8.072169999999999845e+00 1.981519999999999948e+00 4.962369999999999948e+00 1.107010000000000050e+00 1.240060000000000051e-01
4.650540000000000229e-01 1.173859999999999992e+01 1.093420000000000059e+01 5.271399999999999864e+00 1.112059999999999960e+01 6.987770000000000259e+00 9.085449999999999804e+00 5.595040000000000013e+00 1.674670000000000047e-01 6.572549999999999670e+00 5.459880000000000067e+00 1.105129999999999946e+01 2.353190000000000115e+00 4.301090000000000302e+00 9.051769999999999428e+00 1.624200000000000088e+00 9.202130000000000365e+00 8.066599999999999326e+00 3.418480000000000185e+00 6.650679999999999925e-01 3.664620000000000211e+00 4.736570000000000391e+00 6.809429999999999872e+00 1.515579999999999927e+00 1.093929999999999936e+01 5.530870000000000175e+00 7.454110000000000014e+00 1.757470000000000088e+00 5.853760000000000296e+00 1.109900000000000020e+01 7.913700000000000401e+00 7.161970000000000169e+00 6.664250000000000007e+00 6.989440000000000097e+00 3.989069999999999894e+00 7.181460000000000399e+00 8.707810000000000272e+00 4.469750000000000334e+00 5.615669999999999717e+00 4.943870000000000209e-01 5.574139999999999873e+00 5.255289999999999573e+00 4.388690000000000424e+00 3.801540000000000141e+00 4.210219999999999629e+00 1.306370000000000031e+00 6.662049999999999805e+00 7.532239999999999824e+00 7.671710000000000029e+00 7.598580000000000112e+00 3.304139999999999855e+00 5.567160000000000331e+00 1.794960000000000111e+00 2.569389999999999841e+00 9.221679999999999211e+00 2.697159999999999780e+00 7.324709999999999610e+00 3.089830000000000076e+00 1.067670000000000030e+01 5.312890000000000335e+00 4.859060000000000379e+00 2.850190000000000001e+00 1.069009999999999927e+01 1.049269999999999925e+01 7.214540000000000397e+00 1.435640000000000027e+00 6.498999999999999666e+00 6.052439999999999820e+00 8.486629999999999896e+00 1.125060000000000038e+01 4.426280000000000214e+00 1.150000000000000000e+01 8.436270000000000380e+00 2.671570000000000000e+00 1.098600000000000065e+01 5.557809999999999917e+00 7.127369999999999539e-01 3.283519999999999772e-01 4.076609999999999623e+00 9.146689999999999543e+00 7.705099999999999838e+00 8.037150000000000460e+00 1.186550000000000082e+01 4.517149999999999777e-01 6.216689999999999827e+00 5.654029999999999667e+00 3.118030000000000079e+00 1.512329999999999952e+00 8.198309999999999320e+00 1.145299999999999985e+00 1.910820000000000018e-01 1.188499999999999979e+01 4.077810000000000379e+00 3.459650000000000225e-01 3.364730000000000221e+00 1.241260000000000030e+00 1.195219999999999949e+01 1.019539999999999935e+01 1.548419999999999908e+00 2.532780000000000031e-01 7.763230000000000075e+00 1.002190000000000047e+01 6.245099999999999874e+00 7.308649999999999869e-01 9.231429999999999580e+00 1.038350000000000106e+00 8.979029999999999845e+00 5.187949999999999839e+00 1.165530000000000044e+01 2.794150000000000134e+00 6.262089999999999712e+00 8.583370000000000388e+00 1.141539999999999999e+01 2.728839999999999932e+00 3.264089999999999936e+00 1.098189999999999955e+01 1.283150000000000013e+00 3.750550000000000050e+00 5.858010000000000161e+00 6.520990000000000286e+00 -2.148800000000000016e-02 3.026219999999999910e+00 9.313969999999999416e+00 7.105540000000000411e+00 9.451990000000000336e+00 8.128769999999999385e+00 9.514239999999999142e+00 6.323550000000000004e+00 9.737790000000000390e+00 2.726259999999999906e+00 2.004869999999999930e+00 1.131140000000000079e+01 9.969200000000000728e+00 1.101989999999999981e+01 5.292489999999999917e+00 1.024499999999999922e+01 1.026699999999999946e+01 1.074890000000000079e+01 4.022359999999999935e+00 7.439269999999999605e+00 1.011120000000000019e+01 2.643780000000000019e+00 1.036090000000000089e+01 1.026650000000000063e+01 7.188839999999999897e+00 3.817579999999999973e+00 1.005290000000000017e+00 1.036589999999999989e+01 8.752269999999999328e+00 7.791009999999999991e+00 5.572519999999999918e+00 9.725669999999999149e+00 2.408440000000000136e+00 1.748089999999999922e+00 2.535369999999999902e+00 3.540049999999999919e+00 1.071739999999999959e+01 3.980189999999999895e+00 3.608150000000000190e+00 1.101619999999999955e+01 1.171369999999999933e+01 8.375040000000000262e+00 4.519709999999999894e+00 2.225530000000000008e+00 6.533210000000000406e+00 1.050559999999999938e+01 1.303120000000000056e+00 2.493710000000000093e-01 2.380570000000000075e+00 1.196080000000000076e+01 6.939090000000000202e+00 6.500079999999999636e+00 9.025850000000000151e+00 5.505110000000000170e+00 7.131330000000000169e+00 1.024129999999999985e+00 6.008289999999999687e+00 6.791680000000000383e+00 9.466110000000000468e+00 1.113090000000000046e+01 3.627320000000000100e+00 4.357330000000000148e+00 1.047299999999999898e+00 1.026229999999999976e+01 7.735570000000000057e+00 4.806169999999999831e+00 2.422989999999999977e+00 6.922089999999999854e+00 3.207889999999999908e+00 8.431630000000000180e+00 2.434400000000000119e+00 3.629430000000000156e+00
1.187700000000000067e+01 3.127929999999999877e-01 6.534460000000000157e+00 5.061709999999999710e+00 3.888520000000000199e+00 1.178749999999999964e+01 8.321899999999999409e+00 1.145049999999999901e+00 1.099469999999999992e+01 1.175459999999999994e+01 1.928760000000000030e+00 3.991499999999999826e+00 1.147569999999999979e+01 7.416459999999999830e+00 8.821499999999999897e-01 2.631510000000000016e+00 2.144239999999999924e+00 1.403459999999999985e-01 7.431180000000000341e+00 1.112320000000000064e+01 1.022489999999999988e+01 6.290000000000000036e+00 2.907890000000000086e+00 9.915770000000000195e+00 9.409829999999999472e+00 1.215000000000000036e+01 5.068839999999999790e+00 5.333160000000000345e+00 1.219300000000000050e+00 8.660629999999999384e+00 9.909319999999999240e+00 2.753849999999999909e+00 5.173189999999999955e+00 7.202270000000000394e+00 1.972339999999999982e+00 3.520059999999999967e+00 1.031789999999999985e+01 9.249930000000000874e+00 1.141489999999999938e+01 1.218360000000000110e+00 5.835790000000000255e+00 3.323989999999999778e+00 3.266329999999999956e+00 1.966909999999999936e+00 7.684040000000000425e+00 1.046529999999999916e+01 4.648950000000000138e+00 7.841890000000000249e+00 1.087959999999999994e+01 5.763410000000000366e+00 1.085539999999999949e+01 2.805180000000000007e+00 1.142680000000000007e+01 1.948790000000000022e+00 1.129609999999999914e+01 2.513840000000000074e+00 1.042580000000000062e+01 9.731719999999999260e+00 1.210810000000000031e+01 9.197340000000000515e+00 1.034740000000000038e+01 9.720860000000000056e+00 5.807380000000000209e+00 2.083229999999999915e+00 7.046109999999999651e+00 9.741349999999999731e-01 1.067300000000000004e+01 7.485800000000000232e+00 9.139590000000000103e+00 4.933130000000000237e+00 9.793410000000000171e-01 4.687689999999999912e+00 6.230209999999999582e+00 6.455519999999999925e+00 3.638189999999999813e+00 7.940960000000000241e-01 -5.890299999999999703e-02 3.662659999999999805e+00 4.934910000000000352e+00 7.824169999999999625e+00 9.417149999999999466e+00 4.396370000000000111e+00 6.454690000000000261e+00 1.181920000000000037e+01 1.171000000000000085e+01 8.040620000000000545e+00 3.545949999999999935e+00 5.757419999999999760e-01 6.257469999999999644e+00 7.980900000000000105e+00 6.782619999999999649e+00 6.422959999999999781e+00 2.997210000000000152e-01 4.464870000000000339e+00 1.011209999999999987e+01 3.602189999999999781e+00 2.433930000000000149e+00 1.218820000000000014e+01 5.865389999999999660e+00 5.082290000000000418e+00 9.230959999999999610e+00 5.367760000000000309e-01 8.911890000000000089e-01 3.472739999999999938e+00 7.716510000000000424e+00 8.810069999999999624e+00 1.976949999999999985e+00 7.300239999999999618e+00 7.754159999999999719e+00 7.565909999999999691e+00 5.525839999999999641e+00 7.214080000000000048e+00 1.046490000000000009e+01 3.964490000000000069e+00 8.669520000000000337e+00 4.248099999999999987e+00 2.003890000000000116e-01 8.880760000000000431e+00 9.268090000000000828e+00 8.021890000000000853e+00 5.127749999999999808e+00 8.594709999999999184e+00 6.106060000000000265e+00 1.895389999999999908e+00 2.951319999999999943e+00 4.776909999999999989e+00 1.208949999999999925e+01 1.006639999999999979e+01 7.579369999999999941e+00 2.677270000000000039e+00 3.914740000000000109e+00 1.029829999999999934e+01 2.006060000000000176e+00 8.216480000000000672e+00 4.480970000000000120e+00 1.014140000000000086e+01 2.254529999999999923e+00 1.964290000000000092e+00 5.061589999999999812e+00 8.670020000000000504e-01 1.209959999999999924e+00 2.882540000000000102e-01 1.044439999999999991e+01 1.204839999999999911e+00 1.298289999999999944e+00 7.275590000000000224e+00 1.024109999999999943e+01 5.448540000000000383e+00 3.501689999999999969e+00 7.563130000000000130e+00 7.508270000000000444e+00 8.438959999999999795e+00 1.050270000000000081e+01 6.421299999999999564e+00 1.148830000000000062e+01 7.580940000000000012e+00 1.077210000000000001e+01 6.337200000000000166e+00 5.763419999999999987e+00 4.976899999999999658e+00 1.169410000000000061e+01 1.054879999999999995e+01 7.749080000000000190e+00 4.805480000000000196e+00 5.238940000000000374e+00 8.801439999999999486e+00 8.370359999999999800e+00 2.087919999999999998e+00 6.093190000000000550e-01 4.358249999999999957e+00 7.501630000000000242e-01 7.691159999999999997e+00 5.254019999999999690e+00 9.722260000000000346e+00 3.071200000000000152e+00 9.818369999999999820e+00 1.042830000000000013e+01 1.156779999999999919e+00 4.145329999999999848e-01 1.048760000000000048e+01 1.067060000000000031e+01 5.572370000000000267e+00 2.823379999999999779e+00 3.298919999999999852e+00 6.492130000000000400e+00 7.360730000000000217e+00 7.814610000000000056e+00 1.182440000000000069e+01 1.687140000000000084e+00 5.264129999999999754e+00 4.227649999999999686e+00 2.944479999999999986e+00
7.757390000000000008e+00 7.171289999999999942e+00 1.112279999999999935e-01 8.731769999999999143e+00 8.217700000000000671e+00 7.206159999999999677e+00 1.069239999999999924e+01 4.317560000000000286e+00 5.566379999999999661e-01 1.487929999999999975e+00 1.040189999999999948e+01 1.041729999999999912e+01 6.242420000000000080e+00 2.576709999999999834e+00 9.139310000000000045e+00 5.327980000000000160e+00 8.255829999999999558e+00 1.007520000000000060e+01 2.279999999999999805e+00 4.626210000000000377e+00 1.611879999999999979e+00 5.608030000000000292e+00 8.440310000000000201e+00 5.852159999999999584e+00 7.845110000000000028e+00 9.605270000000000863e+00 2.216070000000000206e+00 7.754690000000000083e+00 3.326770000000000005e-01 8.923569999999999780e+00 8.952790000000000248e+00 4.211949999999999861e+00 2.401380000000000070e+00 6.079390000000000072e+00 4.289810000000000123e+00 5.633280000000000065e+00 7.256509999999999572e+00 4.817840000000000344e+00 5.554240000000000288e-01 8.706390000000000740e+00 1.085360000000000014e+01 7.472839999999999705e+00 4.295789999999999886e-01 9.046870000000000189e+00 7.794340000000000046e+00 9.640159999999999840e+00 2.025360000000000049e+00 3.548859999999999904e+00 6.355579999999999785e+00 1.265360000000000040e+00 6.771209999999999951e+00 6.608810000000000073e+00 8.973599999999999355e+00 7.896779999999999688e+00 4.869049999999999767e-01 1.067549999999999999e+00 1.060449999999999982e+01 9.675470000000000681e+00 2.761800000000000033e+00 9.823980000000000601e+00 7.066840000000000011e+00 1.916909999999999892e+00 3.190459999999999852e+00 1.247449999999999948e+00 4.317300000000000026e-01 4.322580000000000311e+00 1.017950000000000088e+01 1.490690000000000071e-01 9.627019999999999911e+00 3.055800000000000072e+00 8.915390000000000370e+00 1.136660000000000004e+01 1.620240000000000014e-01 3.412370000000000125e+00 4.977439999999999642e+00 1.164569999999999972e+01 5.500609999999999999e+00 9.734389999999999432e+00 1.156099999999999994e+01 1.140169999999999995e+01 8.350260000000000460e+00 5.494769999999999932e+00 9.915620000000000545e+00 4.661390000000000255e-01 9.678799999999999903e-02 3.423900000000000166e+00 1.036930000000000085e+01 2.036210000000000075e+00 1.215150000000000041e+01 6.671129999999999782e+00 1.002410000000000068e+01 1.202350000000000030e+01 3.013389999999999791e+00 1.926129999999999898e+00 6.268979999999999997e+00 1.086700000000000088e+01 2.248439999999999994e+00 7.165259999999999962e+00 8.842639999999999390e+00 2.779749999999999943e+00 7.421289999999999942e+00 2.156919999999999948e+00 4.171599999999999753e+00 1.032639999999999958e+01 8.916619999999999990e+00 5.239770000000000039e+00 7.435999999999999555e-02 1.956890000000000018e+00 4.865319999999999645e+00 5.313279999999999781e+00 1.120710000000000051e+01 6.817839999999999456e-01 2.293550000000000200e+00 7.630419999999999980e+00 1.936250000000000027e+00 9.843140000000000001e+00 3.547620000000000218e+00 7.264719999999999622e+00 1.122930000000000028e+01 4.795600000000000307e+00 1.736599999999999921e+00 7.549330000000000318e+00 6.135729999999999684e+00 8.786500000000000199e+00 2.083610000000000184e+00 8.175249999999999462e-01 9.180149999999999366e+00 6.413529999999999731e+00 9.658860000000000667e+00 8.759919999999999263e+00 9.508290000000000575e+00 1.043169999999999931e+01 1.179499999999999993e+01 6.057540000000000369e+00 2.760499999999999954e+00 2.839360000000000106e+00 2.346010000000000151e+00 2.010869999999999880e-01 8.658749999999999503e+00 4.426099999999999923e+00 6.327420000000000044e+00 1.060490000000000066e+01 7.613179999999999836e+00 7.647659999999999458e-01 3.816479999999999873e+00 2.465479999999999894e+00 7.755829999999999558e+00 5.702440000000000175e+00 6.010650000000000048e+00 7.737919999999999909e+00 1.538489999999999913e+00 1.171870000000000012e+01 1.289670000000000094e+00 4.231049999999999756e+00 1.086700000000000088e+01 5.446349999999999802e+00 9.564590000000000813e+00 1.517749999999999932e+00 6.225620000000000154e+00 1.139760000000000062e+01 5.862700000000000244e+00 6.793020000000000280e+00 1.087270000000000003e+01 1.062369999999999948e+01 5.366600000000000259e-01 3.912490000000000023e+00 6.238299999999999734e+00 4.938889999999999780e+00 1.035829999999999984e+01 8.521810000000000329e+00 3.566769999999999996e+00 1.131099999999999994e+01 1.115470000000000006e+01 5.619640000000000413e+00 1.110710000000000086e+00 2.654949999999999921e+00 2.774249999999999883e+00 7.698900000000000077e+00 1.208329999999999949e+01 7.042730000000000379e-01 8.225709999999999411e+00 6.611119999999999663e+00 4.352660000000000196e+00 3.940609999999999946e+00 1.206730000000000080e+00 4.537550000000000416e+00 5.242280000000000051e+00 4.144230000000000302e+00 2.364889999999999937e+00 5.147669999999999746e+00 7.834290000000000198e+00 3.103289999999999882e+00