-1.049556182448515392e+04
-1.049150744783302071e+04
-1.049761099351939447e+04
-1.049905897979200381e+04
-1.049828496097697098e+04
-1.049225650100831263e+04
-1.049744063246799851e+04
-1.049099929728501593e+04
-1.049564848843620348e+04
-1.049530298311469778e+04
-1.048827540474583111e+04
-1.049942564805585243e+04
-1.049553062638774645e+04
-1.049151512080556313e+04
-1.049512260205416351e+04
-1.049655983306889902e+04
-1.049819646429100612e+04
-1.049144736072786327e+04
-1.049851006359146231e+04
-1.049296742806994916e+04
-1.049625405447590674e+04
-1.049106997667469659e+04
-1.049468137467289125e+04
-1.049435652769703120e+04
-1.050451633671963464e+04
-1.049565179116397485e+04
-1.049669780066557178e+04
-1.049908212000997628e+04
-1.049172386580107741e+04
-1.049336509125295197e+04
-1.049687189300366663e+04
-1.050107927357740482e+04
-1.049248740745063697e+04
-1.049857100409890700e+04
-1.049443258809369036e+04
-1.049645338809686473e+04
-1.049948187161234091e+04
-1.049238313272276901e+04
-1.049591857190941118e+04
-1.049791324212425388e+04
-1.049750233951354494e+04
-1.049974111936297413e+04
-1.049613127399663790e+04
-1.049539394932054347e+04
-1.050022358029546740e+04
-1.049847787361647170e+04
-1.049559044464511680e+04
-1.049184571667832824e+04
-1.049243191948799358e+04
-1.049279017989973363e+04
-1.049553291307535437e+04
-1.049186155427166159e+04
-1.050038337013680029e+04
-1.049728427081700829e+04
-1.049191144319681734e+04
-1.049607935655519759e+04
-1.049108371677598188e+04
-1.049570340856975236e+04
-1.049693909701352641e+04
-1.049539338832339490e+04
-1.049328317478936151e+04
-1.049257224629530720e+04
-1.049499918193253870e+04
-1.049200598746965443e+04
-1.049404697264091919e+04
-1.049785351786259889e+04
-1.049435393945980104e+04
-1.049577867693085682e+04
-1.049697243833258472e+04
-1.049618080880839807e+04
-1.049925218480875810e+04
-1.049745280186362652e+04
-1.049516729845383270e+04
-1.049605497575377740e+04
-1.049185200651749983e+04
-1.049417560348006191e+04
-1.049102902744296262e+04
-1.049558817187171007e+04
-1.049512929214742871e+04
-1.049822999317098220e+04
-1.049745310483306275e+04
-1.049483581232661163e+04
-1.049272826991015791e+04
-1.049520107148497482e+04
-1.049731498780655238e+04
-1.050039181420645582e+04
-1.049202374699546453e+04
-1.049308661536737964e+04
-1.049300424833764191e+04
-1.049203878610880929e+04
-1.049592131457945288e+04
-1.049179198384981646e+04
-1.049687127815966051e+04
-1.049270793639781914e+04
-1.049720009671714797e+04
-1.049582377424019251e+04
-1.049403822081682847e+04
-1.049430459745692860e+04
-1.049981201011281155e+04
-1.049502287916810201e+04
-1.049381501044552169e+04
-1.049639574208951854e+04
-1.049868780369877823e+04
-1.049668695376014330e+04
-1.049126528612841503e+04
-1.049783693128925734e+04
-1.049699428160485877e+04
-1.049475118404613386e+04
-1.049604416680852046e+04
-1.049518165104456057e+04
-1.049144241351871278e+04
-1.049407639385187213e+04
-1.049355241162956372e+04
-1.050047719930798667e+04
-1.049870837540759021e+04
-1.049737403622985767e+04
-1.049694908322656920e+04
-1.049621868147563146e+04
-1.049299191228634299e+04
-1.049579345645169815e+04
-1.049378705058021478e+04
-1.049237858581856017e+04
-1.049294829747787298e+04
-1.049416039895041831e+04
-1.049597677477423349e+04
-1.049502967343264390e+04
-1.049758157732039399e+04
-1.049740166926215170e+04
-1.049146710711818923e+04
-1.049305136398971263e+04
-1.049313589706964740e+04
-1.049831230882249474e+04
-1.049671378650676706e+04
-1.049988345666242822e+04
-1.049166755497869417e+04
-1.049448873082742466e+04
-1.049818596677351525e+04
-1.049462952783860601e+04
-1.049758289453709949e+04
-1.049458269418930649e+04
-1.049678844763776760e+04
-1.049454545658103780e+04
-1.049389421190242683e+04
-1.049461924094241658e+04
-1.049530095541374249e+04
-1.049192510105746260e+04
-1.049310864303139351e+04
-1.049292633903310343e+04
-1.049486763530649114e+04
-1.049597843724211270e+04
-1.048803449544110299e+04
-1.049265133313403567e+04
-1.049321522595896022e+04
-1.049390560830550385e+04
-1.049809059395961958e+04
-1.049582434209364510e+04
-1.049748515784232222e+04
-1.049729439554209785e+04
-1.049619013195097068e+04
