-1.076923013327096834e+00 5.959709136891905290e-01 6.974909219335921895e-01 -6.750842721210480180e-02 4.200586066340121216e-01 7.554878101182350703e-01 2.626145335719839435e-01 -7.422394297590668710e-01 1.108879768714492675e+00 1.514971628766631939e+00 2.293932582287883104e+00 7.006307531117120790e-01 4.693595097133182459e-01 6.712481862073933769e-02 8.088747103382780690e-01 -3.180092596711766362e+00 -1.165896552374815487e+00 -1.136562836430523138e+00 -1.721524286391651559e+00 -1.757765528083681250e-01 -1.139312374149063362e-01 6.219853354548446900e-01 -9.264368596347279938e-01 -1.137758399399591225e+00 1.756622415619063071e+00 -1.860597313159950472e+00 3.199203092274106042e-01 1.405210720676087210e-01 3.548595442795778876e-01 2.499131811209854614e+00 1.313299439158568616e+00 1.095828849077957523e+00 -1.708215227997924579e-01 2.410820588335968462e-01 2.625564266405840397e-01 -1.551707036485876490e-01 4.138627622407650697e-01 -2.196051713455134280e+00 -3.911563217998479947e-01 6.416085089871462199e-02 -3.954896590645083920e-01 -3.904554390786267315e-01 -5.689753589579528148e-01 -4.193674941047960680e-01 1.581686099323149353e-01 -4.110623166796709138e-01 1.272387531467380206e-01 -1.508258992638368490e+00 -2.214609421838227843e-01 3.688417174804061727e-01 -1.168128269917075412e+00 7.713972822472640045e-01 2.838336422573172868e+00 -7.961631763187689836e-01 1.598711944443940297e-02 -8.220845241500568737e-03 1.783312009074345394e-01 1.108992383032869178e+00 -1.717498967285473688e+00 -2.429277509475217922e+00 4.350825908349830184e-01 9.492276322592695381e-01 -1.441060640467273668e+00 2.864121501937018643e-01 -3.876899605204988664e-01 -1.720427968004532016e-01 3.439755503856889995e-01 5.070745077362505127e-01 -1.139368938418567762e-01 -8.512459761826771110e-02 -7.233011981083992126e-01 1.097897044459287125e-01 1.649835245442548226e+00 -3.727343676635649361e-01 -1.060428358119014369e+00 -3.579849772800057506e-02 2.085781726939051339e-01 5.837967402299720776e-01 -6.583237648462952896e-01 1.307159130593562035e-01 -6.949054205966144204e-01 5.043501668286712869e-01 1.252312357999676717e-01 -7.807113605520927813e-01 7.891574344303468047e-01 7.603029721149454634e-01 1.683842198489158282e+00 9.504283374346560453e-01 -4.494396308764351811e-01 1.649019691520422715e+00 8.741653039651831048e-01 -5.709299115796419022e-01 -1.463461633852867760e-01 2.669944592258905569e+00 1.805195696504291014e+00 5.872713290394309116e-01 -1.110261479552292707e+00 8.530987131192585560e-01 -1.573761445165598349e+00 -5.658113594101357169e-01 1.401910966881459775e+00 -8.565398775876466031e-01 -1.305091449432864703e+00 -1.865516861944928495e+00 7.969324503840272689e-01 7.977670304695315406e-02 9.391468509923416030e-02 9.644902148334222325e-01 -8.507014165335403666e-01 1.686304286874490410e-01 1.773145867182529256e-01 -3.191385910228613287e+00 -4.466057609742703216e-02 3.097814210290828485e-01 7.618127238900781473e-01 -4.318805389604084555e-01 4.192759628323254883e-01 9.857640365939851490e-01 1.271051072045183528e+00 -1.114206066019268970e+00 8.274293333975805131e-01 -9.252875765225272442e-01 1.240968650860907463e-01 -2.393325259778291692e+00 1.059869400292185793e+00 -2.472871591982172823e-01 -9.594277127127884275e-02 -6.693609964884776782e-03 -8.712722986903546074e-01 5.333311274195093876e-01 -4.421407832278544947e-01 -7.733621192815900991e-02 -1.085372172529142087e+00 1.284358587777015004e-01 4.064230181390555141e-01 -1.580945621613274732e-01 -1.593122366175652727e-01 6.918391229688500843e-01 4.606285576050153652e-01 7.891435504732867423e-02 2.678693542089323198e-01 5.879099910641975013e-01 -6.202169307018878114e-02 -1.440717655305824851e-01 2.064235368243604096e+00 1.978667512440675180e+00 1.987396921887082613e+00 -1.279000408793063426e-01 2.436835010101622012e-01 -1.102668497702289585e+00 1.355919587788786407e+00 -1.112391895630076899e+00 3.746580670473426133e-01 -9.284495191878169296e-01 1.805228092404097817e-01 -4.388528565077597920e-01 -1.118991917439963624e+00 -5.355885559933624140e-01 7.723727587858969512e-01 8.804691346911200367e-02 -1.072136133465138252e+00 1.817607954116059243e+00 3.020490853878465831e-01 -4.625928804187097627e-03 8.033360399125445694e-02 -7.168045346455156341e-01 1.120637423461906756e+00 -1.134789803691879762e+00 -4.089136971915189100e+00 1.135306595426896215e-01 9.613838079963730188e-01 8.775072238516228307e-01 -4.243965718843592527e-01 -5.443889278869660231e-01 -1.882259885718197578e+00 -1.105886490416451817e+00 8.563362462174312073e-01 -8.033591798409781548e-01 1.377720485697002950e-01 -2.673993565514148907e-01 1.156387070229880631e+00 -1.739948811631093939e+00 -1.038077758355342578e-01 3.760706311230542775e-01 -2.800460987713101479e-01 -3.473457524068808422e-02 -4.817018333191540602e-01 8.250207239579613328e-01 -5.222471016998281312e-01 1.275624036124289429e+00 -2.418374489417949580e-01 -8.671816735639308743e-03
-1.791143589297530259e-01 -2.000690553661854221e+00 1.649406899656211012e+00 -1.061205859714382305e+00 -7.636778021218241230e-01 -3.061263407778420098e-01 -2.227289074178561812e+00 -1.245346211099907396e+00 5.719357271355545613e+00 -6.878215171721499890e-03 2.588293555008833180e-01 -1.048562717038910297e-01 6.741185657744200865e-01 7.636094107777869899e-01 -3.376125842870884020e-01 1.661779562279326550e+00 3.751918280632103309e-01 -1.290776061262592644e-01 4.678312459954386826e-01 1.326900060650559043e-01 -5.040544899653532918e-01 -4.513350481254607138e-01 3.201799906464984913e-01 3.162364326207858789e-01 -1.401571067043802188e+00 1.923546660250009754e+00 2.968647643995257379e+00 3.402844746902182749e-01 -1.808951049778743936e-01 1.161480425588426124e+00 1.178035244610435850e+00 -1.051287572167121320e+00 -2.164202430179797076e+00 -4.115158592769689316e-01 2.803114366173484195e-01 -4.398206197369149972e-01 -1.531417947235319765e+00 -4.038483154353467164e-02 9.464960922628443685e-01 -2.354138048086352464e-01 -3.768260212312524171e-02 -1.672055747386360203e+00 1.609225185262260105e+00 3.472722188565253165e-01 1.238711222287054159e-01 -1.060954920046036198e+00 -7.647756631708391151e-01 8.394029608103746876e-01 4.018623953551142547e-01 1.932955355151100459e-03 2.502619255535110110e-01 8.486954418486654106e-01 -1.889560276028673824e+00 4.561728358299729780e-01 -1.875281911743895913e+00 6.905700264494265550e-01 4.567760166311413683e-01 -6.757527589424622283e-01 8.856977300758437366e-01 -3.378861496632364347e-01 -2.372305463009866458e-02 1.069866877816752770e-01 -7.797831923115906561e-01 5.586636926273210735e-01 1.215753327957159069e+00 7.363294920371323826e-01 1.581663473615347648e+00 -1.655936987460165266e+00 2.106161319020814382e+00 3.131927607008232473e-01 -2.890074217226850165e-02 -2.116526978517791202e-01 8.627640041156457995e-01 -7.235068863611419099e-01 2.199535044015334950e+00 -1.194112866886082175e-01 1.638427260724796941e+00 -1.549972056073990245e+00 1.262802458889562829e-01 2.037144168474840811e+00 1.668989963979228053e+00 -6.183683075303614274e-01 -6.086171416884538221e-01 -6.173455226935975482e-01 -2.763282836029827827e-01 2.109811257065736800e-01 3.107229590060132662e-01 1.055558174514695136e+00 5.481052003933978289e-01 1.008684907038386730e-01 5.214834840615202305e-01 -1.278588003846314214e+00 -2.080713568391467039e+00 -3.992439838976976074e-01 -3.722725975361571571e-01 4.026249845521584492e-01 -1.367128569122009196e+00 4.901417365498257905e-01 6.151924809080114853e-01 4.840101697355608107e-02 -3.865108526116503573e-01 9.321169407342223545e-01 -1.269093434099703321e+00 2.193954721718420764e+00 5.626010800054513927e-01 2.715707143170402738e-01 2.599765817305566551e-01 -3.088739758800444601e+00 -1.651700323674294202e+00 -1.102146563760954656e+00 -2.586072121879209873e-01 2.144431161105520900e+00 -1.774937926084551476e+00 -2.288401625171627263e+00 5.109537881829808725e-01 4.501386109813186209e+00 -3.832537277074038684e+00 4.443462755178899659e-01 -4.667338991670554882e-01 -5.190476209284128339e-01 -2.194898830798510669e+00 9.225118135517622981e-04 1.559982903334985682e+00 1.015111636495337644e+00 -2.110223147791854270e+00 -1.044186185241173570e+00 -6.485299186919435410e-02 -1.710858322045670232e-01 -4.828290049441849585e-01 -1.163273512931711995e+00 8.682805630542095310e-01 -6.971371381388745680e-01 -8.709920484459923729e-02 -1.864358322861354167e-01 1.097655360762314208e-01 -2.526443097409052929e-01 4.121128694305551399e-01 5.866897455048005611e-02 5.004657441756221736e-01 -5.135176922534208099e-01 -6.387684684373990951e-01 -2.040198639028072414e+00 -3.013898545378056876e-02 9.234235267320449747e-01 -9.537121503896959229e-01 5.497471068709176567e-01 -5.352100896083153980e-01 1.484286026781187484e+00 2.311781694640277149e-02 -2.050044421466242106e+00 5.812492912197515516e-01 -1.354477713137058892e-01 4.832444952147255668e-01 1.496906029528225934e+00 -7.524472235220635019e-01 -7.794412355914056567e-01 1.307116450281118114e+00 -3.024635472171234296e-01 -1.674653075797871038e+00 1.132756061092884625e+00 -5.511807539925355215e-01 1.536367835037576735e-01 1.350439538515084470e+00 -9.639034890924733645e-01 -1.061870746991373737e+00 1.460237470491123069e-01 4.484009052000837436e-01 8.995904288867287990e-01 9.571353171359691103e-01 9.911402133000518644e-01 -1.012883518497500468e+00 -1.555759095064910724e+00 2.482914320922343099e-01 -9.094331260011069284e-01 -1.130442068249527116e-01 2.964636208846140042e-02 1.532673674018315113e+00 -1.454016429286914880e+00 5.466371004894454710e-02 1.784158930455014058e+00 -8.451303502079996477e-01 1.766800384585411887e-01 -6.481139142007712461e-01 1.580761530627070144e+00 5.586708917161670174e-01 5.755794945328944756e-01 -6.971551358609895388e-01 -3.052547368068441180e-01 1.041373912605546848e-01 1.090734465278148546e+00 -1.150441651284348277e+00 4.846272344937894300e-02
3.842801635106539715e-01 2.472779032268438704e-01 -9.373059411302929467e-02 -5.316336851137488662e-01 -1.570207152158201946e+00 -2.106575780850091117e+00 7.579452705178802985e-01 8.338997716082390266e-01 -9.469475779776147517e-01 3.149133429350173263e-01 -2.287263654913327116e-01 -2.057530445424818333e-01 6.666171151968877107e-01 1.120076408752550323e+00 1.038304015433359595e+00 -1.670291456398458052e-02 -3.622463236562061262e-01 -6.404777378176923497e-01 1.191394182405453250e+00 -3.358102409724290083e-01 1.880648832478589161e-01 -1.405589701281765969e+00 1.413057727518227669e-01 6.892407661160757648e-01 2.778807156905596099e-01 -6.985085645640375374e-01 -5.754545389193532756e-01 -6.328544169504097816e-01 1.745021083943733231e+00 3.138751314792976865e-01 -1.525553775149620650e-01 1.428448351029712737e-01 -1.149588559256097264e+00 -8.360970363681648199e-02 3.127531020605854195e+00 2.504886968521599644e-01 -7.155585780545256624e-02 3.023175085576759735e-01 -4.208566770546544045e-01 -4.435928394480928461e+00 -6.761229977973994831e-01 -3.583655005475800542e-02 -1.833787906297445203e-01 1.429019135931073985e-02 2.673998707720467993e-01 6.690190397682925783e-01 -2.366777591217401056e-01 -1.119149783173943938e-02 4.386420260486983413e-01 -7.123858367559669780e-02 -1.319083907046329773e-01 1.213128745852160156e-01 5.616040062002802813e-01 -7.013146665520822443e-02 -8.741596475382324982e-01 9.862916269622705734e-01 -4.260796160124277199e-01 -1.389434431690709237e-01 -4.474228575582913647e-01 -3.567050821273132222e-01 3.210449097492822368e-01 3.948957342347133581e-01 -2.466572389241922514e-01 -1.620545752472595524e-01 4.233527040016890619e-02 -9.122633963588487604e-02 3.814097839436272341e-01 -2.660952930290251262e-01 5.049338072458290361e-01 7.180216948811216082e-02 -6.948195457510941697e-01 -3.460046649989974021e-01 5.898228918147061517e-01 5.006436645142446906e-01 7.938918637878558116e-01 1.981106975118205604e-01 -1.997200538233439460e+00 1.210831208069022225e+00 4.547479304590967275e-01 1.271199681807790582e-01 9.838881597289702574e-01 -1.847112391310128388e+00 -1.506748212421971989e+00 -7.916328925521072257e-01 2.323408223126567917e-01 -8.217132568538559889e-01 -1.773216315409093635e+00 2.255166003072802891e-02 -5.483509978554255149e-01 -2.576960132282701266e-01 -4.271934179010303811e-01 6.409893873463902159e-01 -3.535045729146342186e-01 -2.831175386053930154e-01 1.178093865762467773e+00 -5.102745027282976631e-01 -5.846328629773717839e-02 1.755168713892802379e-01 -5.241574313471774049e-01 -2.725199656034485995e-01 9.932222926384415285e-02 5.681171247233832711e-01 -1.514307769930904324e-01 1.925843683812515916e-01 -1.739546691096981734e-01 -3.441694115638991303e-01 -2.002174080184762506e+00 -2.027645999183806946e+00 -6.645926285692660418e-01 5.505657461168343980e-01 7.907494615065766563e-01 -5.629486931525867766e-01 8.198322377825226215e-02 1.097096917156117124e+00 7.259046971674920634e-01 3.521588575210640032e-02 -1.412538364680051839e-01 -4.924588147169741553e-02 -7.417092682876220699e-01 4.289854768030525456e-01 1.192919360799541639e+00 3.024074971682509938e-01 -2.471076447756359151e+00 1.425933812139931235e-02 -4.726613203904731636e-02 4.405225308994000638e-02 1.289070905647354381e+00 -4.880277755322609545e-01 -3.104828179709360203e-01 3.387006751440981844e-01 -3.458683965315552111e-01 -2.526587079185972362e-01 -2.101511736067561975e-01 2.858290239971758573e-01 -7.171089532595750216e-01 -8.973710526396332376e-01 -5.865329082120840365e-01 1.560196819117838085e-01 -4.800645548273207996e-01 -7.340957176123448225e-01 4.408953408574964872e-01 1.318261154035358651e-01 -7.339939019272372356e-01 -4.911120708821401504e-01 6.256666409583102606e-01 -5.532612906690296262e-01 7.637143117866859177e-01 9.779663949325031469e-01 -1.095412844586785228e+00 1.075728478799292454e+00 -6.419442950597488151e-01 1.865275692468587154e+00 -8.961919447307848952e-01 -2.779866451407221883e-01 1.637995315394036755e+00 4.203008045516168356e-01 1.001511529223979152e-01 -1.493814020868868608e+00 1.083480354824539527e+00 -5.745865344927781893e-01 5.792536009475139913e-01 2.628901044085961924e+00 1.268320046269390211e+00 -1.373747102874642634e+00 -4.802255058850921077e-02 -1.147787244382701299e+00 -2.504208197287548510e-01 2.307277121905208173e+00 4.442357180820406537e-01 -8.334734827044296690e-01 1.404727353282141655e-01 -9.489787494734508444e-02 -4.790839360823691967e-02 -5.519520849403212193e-01 6.751984291013201078e-01 3.349350374570080890e-01 5.966784812786259939e-01 2.145107361236412991e-01 2.327887084830043918e+00 1.604713413438345171e+00 3.946598098088172968e+00 7.806835926379726009e-01 -7.845042519326712593e-01 -7.388322038523813251e-02 2.082572990196262519e-01 -4.951409895327411603e-01 3.210793625316167316e-03 1.618961952926475656e-01 9.940861832999617342e-02 -1.293723059703766110e+00 6.365537201759902119e-02 9.388588874385016547e-01
-4.844894233644516657e-01 3.413638237964864430e-01 7.671194808108441898e-02 1.494129752336828820e-01 1.371362147584089142e+00 1.781136855801589980e-01 -5.581762114683203740e-02 2.121936579564928649e-01 7.750086537447967716e-01 -8.994911843047803668e-01 9.987429653420600850e-01 -5.494838259074068532e-01 5.650338578147676705e-01 2.283957216250485645e-01 -3.181652742108821430e-01 -1.023852358795645845e+00 3.047137767021303456e-01 -7.262512818733636299e-01 1.374564199458663705e+00 -1.037963087154438302e+00 -6.221185185984957622e-01 -9.066995291221542630e-02 9.780219307607437296e-01 -5.214068651873734472e-01 -5.954263540400537430e-02 -2.917595305443846376e-01 -1.457764069251890060e-01 5.168123038417297144e-01 -1.940349847837206376e-01 2.012597846613138619e-01 9.219857658453723959e-01 -9.789557554281963503e-01 -5.557439478796359633e-02 -1.605596844483875962e+00 -2.815604785321294545e-01 3.963005850009471143e-01 1.490159969058891566e-02 1.515235423950774596e+00 -1.049299080983729704e+00 -1.086733314541667855e-01 2.940467839148852569e-02 -4.781871353004102376e-01 1.267384164719410067e-01 1.763324253114057216e-01 -3.066426182922266652e-01 3.503220614240701858e-01 -6.278037419043086542e-01 1.601139065826305830e-01 9.362821278522653889e-01 4.822057695383740183e-01 -4.050017123126022911e-01 -2.768774712378062053e-01 5.643319466522825900e-01 8.290460430641393152e-01 -1.918860567631895386e-01 -1.205450403377268831e+00 1.443321668585549444e+00 2.669961047319124869e+00 -3.935682736735741205e+00 -5.558273544661232357e+00 3.081311841773267446e+00 1.137626758917835712e+00 -1.141628938095579970e+00 4.024090118867784671e-01 4.706646016769717167e-01 8.353251911997472412e-01 -5.565451036240695037e-01 1.225660302650519312e-01 5.654616893804726985e-01 -2.371107328937638870e-01 5.594324524719475056e-01 -4.267661005559569842e-01 3.797226260505038864e-01 -7.581319326072445408e-01 -9.646650498482536307e-01 -2.153463446504091938e-01 -3.364324479369761867e-01 -5.390436044188107179e-01 4.964337402012301143e-02 -1.881020099774789900e+00 4.508300834649769939e-01 -8.743864188368815071e-01 5.847717025479732406e-02 -3.328972839370845094e+00 1.191444061806743310e-01 -8.925420066858625878e-01 6.976133064439741238e-01 1.343946474596623974e-01 -1.249854383379399025e-01 -1.031623260984271262e+00 -3.169141754135736122e-02 -7.377322859208387262e-01 1.428818589884650048e-01 3.119437187860421568e-01 -5.740795129497670013e-01 6.096553531441735174e-01 -3.593584605876962157e-01 4.813207958309478895e-01 7.512146366675018783e-01 -7.870866679458580206e-01 5.652056075058078943e-02 8.982477988169498273e-01 5.858052860180062299e-02 4.771957179221896772e-01 4.887682532421352422e-01 -4.667832643477138332e-01 -5.764053328676570914e-02 -4.807392122963174419e-01 1.109938548995486274e+00 -4.962609620689261147e-01 -1.596480226901680066e-01 7.119487492188883437e-02 -1.209567767976549302e+00 2.386070635104050819e+00 -2.219669352855702105e-01 2.085015538197584339e-01 1.188605563918891661e-01 1.560495067084315401e-01 -4.394015299219513997e-03 -1.906215882294527708e-02 -3.095834460858177817e-01 -4.944231375306685355e-03 -6.362595859745678872e-01 1.233600897647657790e+00 2.533292516225389979e-01 2.958990580528979564e+00 -7.530267501741665370e-01 3.117693979918426117e-01 -7.355561042068192723e-01 -3.422650982979424938e+00 -1.552425916929212502e+00 5.962557919192393863e-01 1.603221659385327680e-01 2.944843856725957165e-01 6.572187047084342426e-01 -4.944694173875356369e-01 -4.284455451396025349e-01 1.212120873413720101e-01 5.314130844626822059e-01 -2.253489643812948418e-01 1.756634242693595471e-01 1.123606019169617998e+00 7.152089080248628938e-02 3.420302537353733241e-01 -4.156357949794085571e-01 -7.147337681610267390e-01 1.621333538480600911e+00 -1.054949337286576194e-01 -1.928137107830598662e-01 -3.424010068109423766e-01 4.357526203182929270e-01 -3.643772539546222267e-01 -1.735083256012461550e-01 -4.795148529718654129e-01 7.401563219794133897e-01 5.283298175540666053e-01 1.445719993612531340e+00 1.345680940787878255e+00 -1.210659972598613798e+00 1.180444882491318431e-01 5.714796134350973444e-01 -2.388611399246056699e-01 1.602748576404018910e-01 1.199630454265909529e+00 5.348254525756863248e-02 4.957914786320404832e-01 1.107813789344652688e+00 3.401775167987919346e-01 -3.629293629215020189e+00 4.569639642720852102e+00 5.676357627899016656e+00 -7.629249831167852491e-01 -6.313811748401390034e-01 -2.959957829537503304e+00 1.020969637933454521e+00 -3.731514005960010483e-01 -1.004221471953866407e-01 -2.065367167854321312e-02 -5.570037884276861709e-03 3.593944560319262127e-01 -4.042401515568218584e-01 2.136447885795937918e-01 1.729473108918899993e-01 3.262421376754626873e-02 -6.116782971098996269e-01 -1.058434210508672146e+00 2.501971337538969609e-01 -1.602362910930126005e-01 7.039798720869978599e-01 -1.164579119115997541e+00 -5.631374121244784314e-01 -2.808158870572003210e-02
-5.680199370239622514e-01 4.691173117957134764e-01 4.655383361979876233e-01 -4.975871370784856751e-01 9.238590716072279940e-02 1.109117852867042231e+00 1.921375106521676923e-01 1.017474994519353082e+00 4.679659718009853142e-01 1.669880079892972768e-02 8.861106492432249127e-01 -3.414512413039021421e-01 -2.538912947731588599e-01 5.930234010273851553e-01 -4.816498970353363940e-01 -8.185934802803787047e-01 -8.020150071093035127e-01 8.835570295854222600e-01 9.444777762828048262e-01 -2.721769804419998384e-01 -1.460134626364751609e-01 1.800066345701515580e+00 2.084110509885515328e-01 1.670547024052490892e+00 -3.695395148778363170e-02 5.044195866139719597e-02 1.044963172615910041e-01 -9.892108574893236916e-01 -1.318032840074813805e+00 -2.448240423716214198e-01 -8.954884909064042553e-01 1.150889537454695910e+00 -5.360914637713186659e-01 -4.149709077024172493e-02 1.794115784549664416e-01 5.757728414904727046e-03 -3.141687514600881581e-01 1.147426775719769809e-01 1.179971799510009800e-01 1.799938818984815114e+00 -1.182864804784838242e+00 3.755980623623775272e-01 -8.584183255558208714e-01 -5.215585602737714266e-02 3.978000523634426799e-01 -9.434400790477172061e-01 -6.899205657913909384e-01 7.773103052929895007e-01 -1.688880532240094878e-01 -1.220137058843741684e+00 8.868686104545825399e-01 -1.868312679520335584e-01 2.785841695149401595e-02 1.752705597066206711e-01 7.531378218306476746e-02 -2.042350652372394437e-01 -1.909871990987032087e-01 9.755850391863726268e-01 2.930713073762521992e-01 -2.359367671912339925e-01 -3.031083798894723125e-01 -2.500500666531858471e-02 -1.751992373049821028e+00 6.887471143094928139e-02 -1.407606988820541694e-01 4.590637842222740073e-01 -6.656447239820458828e-01 1.167816137993538117e+00 -3.951363894904225127e-01 4.236941465012422636e-01 -3.936940006180631446e-01 -3.738594824060684219e-01 -3.640440389851787861e-01 9.386912515125162004e-01 -1.214041487473706660e+00 9.088556562315314169e-01 -2.423175253236968363e+00 -9.958859555114617512e-01 -8.426332948197012840e-01 -5.805463516160028759e-01 -1.019252141023051506e-01 -9.592225386806774168e-01 3.379463134771636956e-01 -5.578311694243441865e-01 -1.436721132555031089e+00 2.034902166519943378e+00 -8.027909660427759442e-02 4.444090104349764925e-01 -6.992269307867421402e-02 -1.502164963930229025e+00 1.203860433183566503e+00 1.424416861275952795e-01 1.065043488289932450e+00 -1.592284186545725802e-02 -1.877296113958880075e-01 -1.624937196668655879e-04 9.320351796537570399e-01 -1.161666573457158291e+00 3.140977890128919259e-01 -1.929021567317392993e-01 -2.434649572416229257e-01 1.772217184721395222e+00 -8.242843600131419812e-01 -4.680425906751320975e-01 3.598577688212295511e-01 -3.482975747964485169e-01 -8.619787892108000671e-01 1.425924041947925991e+00 8.729162620504019587e-01 1.247963594116060504e+00 1.349850755891607967e+00 -5.254995471963247455e-01 -9.329299235531884893e-02 1.392527983011962123e+00 2.746344408416452887e-01 4.322178676949067072e-02 1.326822927555780240e-01 -3.370983636552311591e-01 -2.398787825550510386e-02 -5.582574583281538771e-01 -5.819028656428421042e-01 1.907141479431870637e-02 3.751964560488970646e-01 9.122947638173920515e-01 1.580809353145832929e+00 -7.271578528473279235e-01 1.850916595544607635e+00 -1.862805376553145209e-01 9.565665891171351021e-01 7.427860462907309724e-01 5.113409963187693918e-01 -7.745741373108775418e-01 1.200520055959022336e+00 2.861524687746140327e-01 4.092975114711370765e-01 -3.119426903447785060e-01 -3.597184150299962413e-01 -7.675920495715208292e-01 7.421386425152229349e-02 6.746775236012488852e-01 6.040477771537711149e-01 -1.858280234992802094e-01 4.474542250168346558e-02 1.116131308064942235e-01 4.822109117446926052e-01 4.768707304828558868e-01 1.280446911430477730e+00 -1.056651407578023394e-01 2.733808223632406609e+00 -2.854558026625739320e+00 2.275755397172364025e-01 -2.130020127897723492e-01 6.924875551856219946e-01 6.750493051180816995e-01 -1.065271802250477018e+00 -1.549867669285723171e+00 1.994163036961059399e-01 4.715012386450033732e-01 4.049960558856518511e-01 -7.239126064396773641e-01 8.279836632387224116e-01 1.623193988726659986e+00 9.870465028498369431e-02 -1.200261402981198211e+00 2.030862963456705333e-02 -2.094816583440781699e-01 1.361759077284156391e-02 -7.822607073158784896e-01 4.728551815686832804e-01 -7.873653755283246403e-01 -4.101063805250484418e-01 1.684761624978919070e-01 4.239857095995052672e-01 -9.139191867934289837e-01 -1.536190943140218090e+00 -1.367445329031232948e+00 -9.175213023195883943e-01 -2.821400051842324896e-01 4.310783547747112920e-01 -1.032092230200525040e-02 -1.103448570400817008e+00 -1.130972229720971889e+00 -1.632815056748707638e-01 4.498700335452996968e-01 1.096508648753272835e-01 -3.003999798214805894e-01 7.368138878723418106e-01 6.791039348002753107e-01 -1.581489667041779734e+00 -7.962598497975580392e-01 -1.556104651329518918e+00 -7.250644606550373794e-01
-2.570794626906733674e-02 1.410338014596335121e+00 3.096312686045804563e-01 1.908876974064388721e+00 -8.065632885980801303e-01 -5.093658748718060680e-01 4.287695041376725635e-01 8.536694980206199768e-01 4.908888991279142799e-01 -7.868598966472090117e-01 1.184276854639918053e+00 -5.701858343253446426e-01 2.109178765688552171e-01 3.244536783178634254e-01 2.995078070252084057e-01 6.097576830499130685e-01 -7.688122951309179776e-01 6.465486265973980906e-01 8.445389964813641015e-01 8.189122970721302019e-01 -1.035274227470457165e+00 -2.747059175094734296e-01 -4.847131093393095558e-01 -1.181968518223511122e+00 -2.416893533998201726e-01 -1.036925904139982535e-01 5.054248879492526658e-01 -9.541795769440541974e-01 1.471365204964512341e-01 5.051194408939294611e-01 2.616693960506304983e-01 1.563403498978099382e+00 1.448975524432819073e+00 -4.558828153936055894e-01 -7.265027357623419224e-01 -2.577494921739832412e-01 -3.606846355972558871e-01 -9.415431191367960029e-01 -3.073342450420745581e-02 -1.921745345376614164e-02 -3.704316876741085562e-01 -8.552718095094868911e-01 -1.220814287415897592e+00 3.058712873444409119e-01 9.263592123193176153e-01 6.863271920159731421e-01 1.086031917599814767e+00 1.189988817418587308e+00 -2.713850806689397863e-02 3.886422971306983665e-01 -6.149081168985944812e-01 -4.744703485733465786e-01 5.596962476560901623e-01 1.897766723092482399e+00 1.520220792976630042e+00 -6.826335452173429852e-01 5.979671181820600534e-01 -2.132021474596911492e+00 -1.586746030340623892e-01 -7.284804283124645119e-01 -1.124297131698834162e+00 2.588380972516248629e-02 7.749412908420235668e-01 1.772585366693804898e-01 1.647305794154442782e-01 -8.223642601737872759e-01 -3.161433586864197398e+00 1.373346525002425933e+00 2.478094016719313952e+00 8.047748292404808268e-01 -9.906403908458867313e-01 1.216484035475028147e+00 -1.121568162805568036e+00 5.711823939098839009e-01 1.560251840725446870e+00 -5.649089022012263595e-01 2.901952199602118920e+00 -1.269647763940845442e+00 2.857218604174967869e+00 -1.454758963879316580e+00 -1.869740155994371378e+00 -1.010973188850151222e-01 -4.928660774574050718e-01 1.625492554951061541e-01 1.933284456355489178e+00 -2.155963587216181310e+00 7.977438905410979553e-01 -4.050721605391667535e-02 2.332674478912633853e-01 1.569423994135883182e+00 4.280526805768637005e-02 -1.671950846377461053e+00 4.173568914342345310e-02 -3.378835785600771136e-01 -2.240364162184794505e+00 5.889763818105429927e+00 2.475079141154735485e+00 2.104037587811244503e+00 -3.094383844455708577e+00 -2.242569140254197624e+00 6.345688285370215675e-02 -1.929886486420176572e+00 -7.886776665808240550e-01 1.596382010760995396e+00 -1.221582533039892032e-01 -1.385048643921599432e+00 3.020223459149899981e-01 1.111493037965590597e-01 -4.237815640086580737e-01 1.819826816142523004e-03 -9.665121303578847467e-01 3.109425312158163313e-01 -3.655440205683060939e-02 1.815301674582180114e-02 -6.033309535929622935e-01 1.581819796687432278e-01 4.521022653081916420e-01 6.954098710364663427e-01 -4.072169747946429719e-01 -3.123088154346608247e-01 1.701802896718665747e-01 8.973083177225468221e-01 -3.164107019929222275e+00 1.396453029094927967e+00 2.344547319081584202e+00 -2.024221803996269831e+00 -1.033064107194735071e+00 -3.018577953127956626e-01 -5.025755914281321290e-01 -4.311081795713589959e-01 6.177265601818036078e-01 -5.019168747987230450e-01 6.613237280125501549e-02 -1.469578802489440505e+00 9.846214383499984901e-01 6.461999850089988895e-01 -2.799967335906518029e-01 -1.007492429393109790e+00 6.410942883552890326e-01 -5.480059558114493967e-01 5.421582387859695817e-01 -1.569658478744010155e-01 -6.141131318017433172e-01 -1.078693989183213020e+00 3.267707564850118040e-01 -4.831719901056336086e-02 2.372377453898326383e-01 -1.078130403370697460e-01 -1.022260331719415799e-01 6.735827478760250120e-01 1.243063585715093344e+00 4.450574426517483473e-01 -3.221134602222814336e-01 4.217786746475742921e-01 -8.190686201442146652e-01 5.068544213058155945e-01 -4.297166985415534768e-01 5.322975439494764816e-01 2.941835666029593011e-01 -7.612753633297874023e-01 -6.536674970248287364e-01 6.983527557125848717e-02 -4.351725794455580387e-01 5.025951318121427702e-01 -5.224892996174327342e-01 -3.127078506449819384e-02 -1.992319555995851310e+00 1.000297968532796178e+00 -3.311179777067323471e-01 1.192202537238732596e+00 8.131273149637370246e-01 -1.481437244480698689e+00 -1.241643308329903883e+00 -1.041301921717086854e-01 -1.297584342428381443e-01 -9.070008624124225038e-01 -7.605446558119183242e-01 -1.016981856933402151e+00 -4.151052735535215810e+00 -1.354297221695277331e+00 -4.507076989545949486e-01 3.298026013304417026e-01 1.207384901394315674e-01 3.781912770088332043e-01 1.382497595366956267e+00 -6.905355736670921729e-01 5.777160812582610161e-01 -3.908904697331778699e-01 3.896614824230392182e-01 4.028908880408918591e+00 1.630870274319023983e+00 -1.318786687521116496e+00